
                                 *****************
                                 * O   R   C   A *
                                 *****************

                                            #,                                       
                                            ###                                      
                                            ####                                     
                                            #####                                    
                                            ######                                   
                                           ########,                                 
                                     ,,################,,,,,                         
                               ,,#################################,,                 
                          ,,##########################################,,             
                       ,#########################################, ''#####,          
                    ,#############################################,,   '####,        
                  ,##################################################,,,,####,       
                ,###########''''           ''''###############################       
              ,#####''   ,,,,##########,,,,          '''####'''          '####       
            ,##' ,,,,###########################,,,                        '##       
           ' ,,###''''                  '''############,,,                           
         ,,##''                                '''############,,,,        ,,,,,,###''
      ,#''                                            '''#######################'''  
     '                                                          ''''####''''         
             ,#######,   #######,   ,#######,      ##                                
            ,#'     '#,  ##    ##  ,#'     '#,    #''#        ,####,   ,####,        
            ##       ##  ##   ,#'  ##            #'  '#       #'       #'  '#        
            ##       ##  #######   ##           ,######,      #####,   #    #        
            '#,     ,#'  ##    ##  '#,     ,#' ,#      #,     #,   #   #,  ,#        
             '#######'   ##     ##  '#######'  #'      '#     '####' # '####'        



                #########################################################
                #                        -***-                          #
                #          Department of theory and spectroscopy        #
                #                                                       #
                #                      Frank Neese                      #
                #                                                       #
                #     Directorship, Architecture, Infrastructure        #
                #                    SHARK, DRIVERS                     #
                #        Core code/Algorithms in most modules           #
                #                                                       #
                #        Max Planck Institute fuer Kohlenforschung      #
                #                Kaiser Wilhelm Platz 1                 #
                #                 D-45470 Muelheim/Ruhr                 #
                #                      Germany                          #
                #                                                       #
                #                  All rights reserved                  #
                #                        -***-                          #
                #########################################################


                         Program Version 6.0.1  -  RELEASE   -


 With contributions from (in alphabetic order):
[Max-Planck-Institut fuer Kohlenforschung]                               
  Daniel Aravena         : Magnetic Suceptibility                        
  Michael Atanasov       : Ab Initio Ligand Field Theory (pilot matlab implementation)
  Alexander A. Auer      : GIAO ZORA, VPT2 properties, NMR spectrum      
  Ute Becker             : All parallelization in ORCA, NUMFREQ, NUMCALC 
  Giovanni Bistoni       : ED, misc. LED, open-shell LED, HFLD           
  Martin Brehm           : Molecular dynamics                            
  Dmytro Bykov           : pre 5.0 version of the SCF Hessian            
  Marcos Casanova-Páez   : Triplet and SCS-CIS(D). UHF-(DLPNO)-IP/EA/STEOM-CCSD. UHF-CVS-IP/STEOM-CCSD   
  Vijay G. Chilkuri      : MRCI spin determinant printing, contributions to CSF-ICE 
  Pauline Colinet        : FMM embedding                                 
  Dipayan Datta          : RHF DLPNO-CCSD density                        
  Achintya Kumar Dutta   : EOM-CC, STEOM-CC                              
  Nicolas Foglia         : Exact transition moments, OPA infrastructure, MCD improvements    
  Dmitry Ganyushin       : Spin-Orbit,Spin-Spin,Magnetic field MRCI      
  Miquel Garcia-Rates    : C-PCM and meta-GGA Hessian, CCSD/C-PCM, Gaussian charge scheme 
  Tiago L. C. Gouveia    : GS-ROHF, GS-ROCIS                             
  Yang Guo               : DLPNO-NEVPT2, F12-NEVPT2, CIM, IAO-localization        
  Andreas Hansen         : Spin unrestricted coupled pair/coupled cluster methods 
  Ingolf Harden          : AUTO-CI MPn and infrastructure                
  Benjamin Helmich-Paris : MC-RPA, TRAH-(SCF,CASSCF), AVAS, COSX integrals, SCF dyn. polar. 
  Lee Huntington         : MR-EOM, pCC                                   
  Robert Izsak           : Overlap fitted RIJCOSX, COSX-SCS-MP3, EOM     
  Riya Kayal             : Wick's Theorem for AUTO-CI, AUTO-CI UHF-CCSDT 
  Emily Kempfer          : AUTO-CI, RHF CISDT and CCSDT                  
  Christian Kollmar      : KDIIS, OOCD, Brueckner-CCSD(T), CCSD density, CASPT2, CASPT2-K, improved NEVPT2 
  Axel Koslowski         : Symmetry handling                             
  Simone Kossmann        : meta-GGA functionals, TD-DFT gradient, OOMP2, (MP2 Hessian; deprecated post 5.0) 
  Lucas Lang             : DCDCAS                                        
  Marvin Lechner         : AUTO-CI (C++ implementation), FIC-MRCC        
  Spencer Leger          : CASSCF response                               
  Dagmar Lenk            : GEPOL surface, SMD, ORCA-2-JSON               
  Dimitrios Liakos       : Extrapolation schemes; Compound Job, initial MDCI parallelization 
  Dimitrios Manganas     : Further ROCIS development; embedding schemes. LFT, Crystal Embedding 
  Dimitrios Pantazis     : SARC Basis sets                               
  Anastasios Papadopoulos: AUTO-CI, single reference methods and gradients 
  Taras Petrenko         : pre 6.0 DFT Hessian and TD-DFT gradient, (ASA, deprecated), ECA, 1-Electron XAS/XES, NRVS 
  Peter Pinski           : DLPNO-MP2, DLPNO-MP2 Gradient                 
  Christoph Reimann      : Effective Core Potentials                     
  Marius Retegan         : Local ZFS, SOC                                
  Christoph Riplinger    : Optimizer, TS searches, QM/MM, DLPNO-CCSD(T), (RO)-DLPNO pert. Triples 
  Michael Roemelt        : Original ROCIS implementation                 
  Masaaki Saitow         : Open-shell DLPNO-CCSD energy and density      
  Barbara Sandhoefer     : DKH picture change effects                    
  Kantharuban Sivalingam : CASSCF convergence/infrastructure, NEVPT2 and variants, FIC-MRCI 
  Bernardo de Souza      : ESD, SOC TD-DFT                               
  Georgi L. Stoychev     : AutoAux, RI-MP2 NMR, DLPNO-MP2 response, X2C  
  Van Anh Tran           : RI-MP2 g-tensors                              
  Willem Van den Heuvel  : Paramagnetic NMR                              
  Zikuan Wang            : NOTCH, Electric field optimization            
  Frank Wennmohs         : Technical directorship and infrastructure     
  Hang Xu                : AUTO-CI-Response properties                   
                                                                         
[FACCTs GmbH]                                                            
  Markus Bursch, Miquel Garcia-Rates, Christoph Riplinger, Bernardo de Souza, Georgi L. Stoychev 
                                                                 
  APM, Basis sets (HGBS, AHGBS, def-TZVP (Ac-Lr), def2-XVPD (La-Lu)), CI-OPT, improved COSX, DLPNO-Multilevel,           
  DOCKER, DRACO, updates on ESD, GOAT, IRC, LR-CPCM, MBIS, meta-GGA TD-DFT gradient, ML-optimized integration grids, 
  MM, NACMEs, nearIR, NEB, NEB-TS, NL-DFT gradient (VV10), 2- and 3-layer-ONIOM, interface openCOSMO-RS, QMMM,   
  Crystal-QMMM, SF, symmetry and pop. for TD-DFT, r2SCAN hybrids, SOLVATOR                                   
                                                                         
[Other institutions]                                                     
  V. Asgeirsson          : NEB                                           
  Christoph Bannwarth    : sTDA-DFT, sTD-DFT, PBEh-3c, B97-3c, D3        
  Sebastian Ehlert       : rSCAN, r2SCAN, r2SCAN-3c, D4, dhf basis sets  
  Marvin Friede          : D4 for Fr, Ra, Ac-Lr                          
  Lars Goerigk           : TD-DFT with DH, B97 family of functionals     
  Stefan Grimme          : VdW corrections, initial TS optimization, DFT functionals, gCP, sTDA/sTD-DF 
  Waldemar Hujo          : DFT-NL                                        
  H. Jonsson             : NEB                                           
  Holger Kruse           : gCP                                           
  Marcel Mueller         : wB97X-3c, vDZP basis set                      
  Hagen Neugebauer       : wr2SCAN                                       
  Tobias Risthaus        : range-separated hybrid DFT                    
  Lukas Wittmann         : regularized MP2, r2SCAN double-hybrids, wr2SCAN        
                                                                         
We gratefully acknowledge several colleagues who have allowed us to      
interface, adapt or use parts of their codes:                            
  Ed Valeev, F. Pavosevic, A. Kumar             : LibInt (2-el integral package), F12 methods 
  Garnet Chan, S. Sharma, J. Yang, R. Olivares  : DMRG                   
  Ulf Ekstrom                                   : XCFun DFT Library      
  Mihaly Kallay                                 : mrcc  (arbitrary order and MRCC methods)
  Frank Weinhold                                : gennbo (NPA and NBO analysis)           
  Simon Mueller                                 : openCOSMO-RS                            
  Christopher J. Cramer and Donald G. Truhlar   : smd solvation model                     
  S Lehtola, MJT Oliveira, MAL Marques          : LibXC Library                           
  Liviu Ungur et al                             : ANISO software                          


 Your calculation uses the libint2 library for the computation of 2-el integrals
 For citations please refer to: http://libint.valeyev.net

 Your ORCA version has been built with support for libXC version: 6.2.2
 For citations please refer to: https://libxc.gitlab.io

 This ORCA versions uses:
   CBLAS   interface :  Fast vector & matrix operations
   LAPACKE interface :  Fast linear algebra routines
   SCALAPACK package :  Parallel linear algebra routines
   Shared memory     :  Shared parallel matrices
   BLAS/LAPACK       :  OpenBLAS 0.3.27  USE64BITINT DYNAMIC_ARCH NO_AFFINITY Zen SINGLE_THREADED
        Core in use  :  Zen
   Copyright (c) 2011-2014, The OpenBLAS Project


NOTE: MaxCore=6000 MB was set to SCF,MP2,MDCI,CIPSI,MRCI and CIS
      => If you want to overwrite this, your respective input block should be placed after the MaxCore statement
Your calculation utilizes the atom-pairwise dispersion correction
with the Becke-Johnson damping scheme (D3BJ)


Your calculation employs the composite approach B97-3c by Grimme and coworkers.
For the correct reference, please check the publication list of the Grimme group:
http://www.thch.uni-bonn.de/tc/index.php?section=publikationen&subsection=grimme#2017
   

XCFun DFT library Copyright 2009-2010 Ulf Ekstrom and contributors.
See http://admol.org/xcfun for more information.
This is free software; see the source code for copying conditions.
There is ABSOLUTELY NO WARRANTY; not even for MERCHANTABILITY or FITNESS FOR A PARTICULAR PURPOSE.
For details see the documentation.
Scientific users of this library should cite U. Ekstrom, L. Visscher, R. Bast, A. J. Thorvaldsen and K. Ruud;
J.Chem.Theor.Comp. 2010, DOI: 10.1021/ct100117s
XCFun Version 0.99 

================================================================================

----- Orbital basis set information -----
Your calculation utilizes the basis: def2-mTZVP
----- AuxJ basis set information -----
Your calculation utilizes the basis: def2-mTZVP/J
================================================================================
                                        WARNINGS
                       Please study these warnings very carefully!
================================================================================


WARNING: Geometry Optimization
  ===> : Switching off AutoStart
         For restart on a previous wavefunction, please use MOREAD

================================================================================
                                       INPUT FILE
================================================================================
NAME = m1_00_Duloxetine-GitHubGFN2-B97-3C-TZ.inp
|  1> %pal nprocs 16 end
|  2> %MaxCore 6000
|  3> # put your comments here
|  4> ! B97-3C  OPT  FREQ DEFGRID3 NOTRAH
|  5> %scf MaxIter 800 end
|  6> %output
|  7> Print [P_Hirshfeld] 1
|  8> end
|  9> %geom
| 10> MaxIter 3000
| 11>  TolE 1e-6 #TolE 5e-6 Energy change (a.u.)
| 12>  TolRMSG 3e-5 #TolRMSG 1e-4 RMS gradient (a.u.)
| 13>  TolMaxG 1e-4 #TolMaxG 3e-3 Max. element of gradient (a.u.)
| 14>  TolRMSD 2e-3 #TolRMSD 2e-3 RMS displacement (a.u.)
| 15>  TolMaxD 4e-3 #TolMaxD 4e-3 Max. displacement (a.u.)
| 16> end
| 17> * xyz 0 1
| 18>  S         3.6641458228        -0.9793684657        -0.4588630919
| 19>  C         3.9268157563        -1.9936855011         0.9066268946
| 20>  C         2.9553288082        -1.8514063912         1.8402129318
| 21>  C         1.9742609043        -0.9044602757         1.4654579722
| 22>  C         2.2146259231        -0.3478542994         0.2489499650
| 23>  C         1.4205140198         0.7115927955        -0.4557830012
| 24>  C         1.9615351956         2.1019517312        -0.0895100168
| 25>  H         1.7420282571         2.2888787531         0.9624939921
| 26>  H         3.0450971892         2.0884376055        -0.2168690578
| 27>  C         1.3723682933         3.2251828029        -0.9638659906
| 28>  N        -0.0306236655         3.5205649656        -0.7856259366
| 29>  H        -0.5758827688         2.6724820296        -0.9054509189
| 30>  C        -0.3665335459         4.1372220003         0.4804240783
| 31>  H         0.2065795654         5.0595909332         0.5831320598
| 32>  H        -0.1682165859         3.5083489742         1.3603430686
| 33>  H        -1.4265435171         4.3876731238         0.4700001192
| 34>  H         1.9297194081         4.1459047373        -0.7650120085
| 35>  H         1.5187592230         2.9629707895        -2.0169899971
| 36>  O         0.0605440299         0.6717709525        -0.0671319500
| 37>  C        -0.7077361081        -0.3981039568        -0.4220579247
| 38>  C        -0.2749372611        -1.4729410046        -1.1580089448
| 39>  C        -1.1590103944        -2.5138039005        -1.4790259150
| 40>  C        -2.4604513757        -2.4851367504        -1.0709968658
| 41>  C        -2.9418302204        -1.3984716970        -0.3106508438
| 42>  C        -4.2792531958        -1.3305635428         0.1314162070
| 43>  C        -4.7240510443        -0.2686714936         0.8682672275
| 44>  C        -3.8493429101         0.7755594034         1.2004171981
| 45>  C        -2.5461849298         0.7407662531         0.7874361488
| 46>  C        -2.0612880844        -0.3392068007         0.0235961267
| 47>  H        -1.8671008272         1.5387641731         1.0432671259
| 48>  H        -4.2123687911         1.6078864436         1.7854782148
| 49>  H        -5.7511990269        -0.2273023752         1.2006422665
| 50>  H        -4.9482442997        -2.1394544640        -0.1259977705
| 51>  H        -3.1369624787        -3.2889546708        -1.3208548430
| 52>  H        -0.7854985131        -3.3447369420        -2.0591879321
| 53>  H         0.7459087177        -1.5448451223        -1.4980099836
| 54>  H         1.5048699628         0.5755557895        -1.5462780049
| 55>  H         1.1198129561        -0.6552011783         2.0689200053
| 56>  H         2.9321447796        -2.3974113918         2.7660549308
| 57>  H         4.7882656828        -2.6307656015         0.9252558598
| 58> *
| 59> 
| 60> 
| 61> 
| 62> 
| 63>                          ****END OF INPUT****
================================================================================

                       *****************************
                       * Geometry Optimization Run *
                       *****************************

Geometry optimization settings:
Update method            Update   .... BFGS
Choice of coordinates    CoordSys .... (2022) Redundant Internals
Initial Hessian          InHess   .... Almloef's Model
Max. no of cycles        MaxIter  .... 3000

Convergence Tolerances:
Energy Change            TolE     ....  1.0000e-06 Eh
Max. Gradient            TolMAXG  ....  1.0000e-04 Eh/bohr
RMS Gradient             TolRMSG  ....  3.0000e-05 Eh/bohr
Max. Displacement        TolMAXD  ....  4.0000e-03 bohr
RMS Displacement         TolRMSD  ....  2.0000e-03 bohr
Strict Convergence                .... False

------------------------------------------------------------------------------
                        ORCA OPTIMIZATION COORDINATE SETUP
------------------------------------------------------------------------------

The optimization will be done in redundant internal coordinates (2022)
Making redundant internal coordinates   ...  (2022 redundants) done
Evaluating the initial hessian          ...  (Almloef) done
Evaluating the coordinates              ...  done
Calculating the B-matrix                .... done
Calculating the G-matrix                .... done
Diagonalizing the G-matrix              .... done
Small eigenvalue found = 2.278e-03
Small eigenvalue found = 4.762e-03
Small eigenvalue found = 8.365e-03
Small eigenvalue found = 9.018e-03
Small eigenvalue found = 2.147e-02
Small eigenvalue found = 2.531e-02
The first mode is                       ....   92
The number of degrees of freedom        ....  114

    -----------------------------------------------------------------
                    Redundant Internal Coordinates


    -----------------------------------------------------------------
         Definition                    Initial Value    Approx d2E/dq
    -----------------------------------------------------------------
      1. B(C   1,S   0)                  1.7212         0.499067   
      2. B(C   2,C   1)                  1.3548         0.710921   
      3. B(C   3,C   2)                  1.4141         0.571885   
      4. B(C   4,S   0)                  1.7323         0.479031   
      5. B(C   4,C   3)                  1.3592         0.699596   
      6. B(C   5,C   4)                  1.4999         0.417259   
      7. B(C   6,C   5)                  1.5362         0.365142   
      8. B(H   7,C   6)                  1.0908         0.359048   
      9. B(H   8,C   6)                  1.0911         0.358642   
     10. B(C   9,C   6)                  1.5405         0.359386   
     11. B(N  10,C   9)                  1.4448         0.457581   
     12. B(H  11,N  10)                  1.0153         0.424306   
     13. B(C  12,N  10)                  1.4478         0.452623   
     14. B(H  13,C  12)                  1.0908         0.359087   
     15. B(H  14,C  12)                  1.0996         0.347652   
     16. B(H  15,C  12)                  1.0892         0.361100   
     17. B(H  16,C   9)                  1.0945         0.354207   
     18. B(H  17,C   9)                  1.0951         0.353409   
     19. B(O  18,H  11)                  2.2607         0.004373   
     20. B(O  18,C   5)                  1.4150         0.510540   
     21. B(C  19,O  18)                  1.3641         0.615382   
     22. B(C  20,C  19)                  1.3727         0.665875   
     23. B(C  21,C  20)                  1.4029         0.595953   
     24. B(C  22,C  21)                  1.3642         0.686896   
     25. B(C  23,C  22)                  1.4109         0.578580   
     26. B(C  24,C  23)                  1.4102         0.580057   
     27. B(C  25,C  24)                  1.3669         0.680138   
     28. B(C  26,C  25)                  1.4021         0.597654   
     29. B(C  27,C  26)                  1.3675         0.678700   
     30. B(C  28,C  27)                  1.4089         0.582949   
     31. B(C  28,C  23)                  1.4174         0.564898   
     32. B(C  28,C  19)                  1.4262         0.546902   
     33. B(H  29,C  27)                  1.0786         0.375483   
     34. B(H  30,C  26)                  1.0802         0.373287   
     35. B(H  31,C  25)                  1.0804         0.373056   
     36. B(H  32,C  24)                  1.0808         0.372487   
     37. B(H  33,C  22)                  1.0799         0.373689   
     38. B(H  34,C  21)                  1.0801         0.373480   
     39. B(H  35,C  20)                  1.0784         0.375808   
     40. B(H  36,C   5)                  1.1022         0.344342   
     41. B(H  37,C   3)                  1.0754         0.380011   
     42. B(H  38,C   2)                  1.0751         0.380359   
     43. B(H  39,C   1)                  1.0716         0.385291   
     44. A(C   1,S   0,C   4)           91.0529         0.443936   
     45. A(S   0,C   1,C   2)          112.0465         0.451653   
     46. A(C   2,C   1,H  39)          128.8206         0.365409   
     47. A(S   0,C   1,H  39)          119.1329         0.362048   
     48. A(C   1,C   2,H  38)          123.7476         0.364604   
     49. A(C   1,C   2,C   3)          112.6550         0.438472   
     50. A(C   3,C   2,H  38)          123.5974         0.351358   
     51. A(C   4,C   3,H  37)          123.2196         0.363547   
     52. A(C   2,C   3,C   4)          112.8753         0.437204   
     53. A(C   2,C   3,H  37)          123.9012         0.351303   
     54. A(S   0,C   4,C   5)          120.5661         0.407482   
     55. A(S   0,C   4,C   3)          111.3695         0.447002   
     56. A(C   3,C   4,C   5)          128.0353         0.413226   
     57. A(C   6,C   5,O  18)          107.3658         0.379521   
     58. A(C   4,C   5,O  18)          111.0959         0.388428   
     59. A(O  18,C   5,H  36)          109.9893         0.336955   
     60. A(C   4,C   5,H  36)          109.7046         0.327852   
     61. A(C   4,C   5,C   6)          109.9255         0.368855   
     62. A(C   6,C   5,H  36)          108.7023         0.320747   
     63. A(H   7,C   6,C   9)          110.2106         0.322111   
     64. A(C   5,C   6,C   9)          112.9470         0.359556   
     65. A(H   8,C   6,C   9)          108.8190         0.322051   
     66. A(H   7,C   6,H   8)          108.3331         0.290521   
     67. A(C   5,C   6,H   8)          108.1016         0.322891   
     68. A(C   5,C   6,H   7)          108.3109         0.322951   
     69. A(H  16,C   9,H  17)          107.9431         0.289235   
     70. A(N  10,C   9,H  17)          107.3016         0.332312   
     71. A(C   6,C   9,H  17)          108.6692         0.321277   
     72. A(N  10,C   9,H  16)          107.4636         0.332436   
     73. A(C   6,C   9,H  16)          108.3901         0.321396   
     74. A(C   6,C   9,N  10)          116.7709         0.371391   
     75. A(H  11,N  10,C  12)          109.5348         0.339019   
     76. A(C   9,N  10,C  12)          114.8521         0.384077   
     77. A(C   9,N  10,H  11)          109.6431         0.339636   
     78. A(H  14,C  12,H  15)          108.3414         0.289364   
     79. A(H  13,C  12,H  15)          108.5292         0.290837   
     80. A(N  10,C  12,H  15)          108.3827         0.332898   
     81. A(H  13,C  12,H  14)          108.2710         0.289111   
     82. A(N  10,C  12,H  14)          114.4783         0.330812   
     83. A(N  10,C  12,H  13)          108.7002         0.332590   
     84. A(C   5,O  18,C  19)          119.4665         0.413262   
     85. A(C  20,C  19,C  28)          119.9399         0.429869   
     86. A(O  18,C  19,C  28)          114.8856         0.421084   
     87. A(O  18,C  19,C  20)          125.1726         0.436213   
     88. A(C  21,C  20,H  35)          118.3561         0.353097   
     89. A(C  19,C  20,H  35)          121.3141         0.359812   
     90. A(C  19,C  20,C  21)          120.3287         0.436561   
     91. A(C  22,C  21,H  34)          120.4468         0.361340   
     92. A(C  20,C  21,H  34)          118.4110         0.352725   
     93. A(C  20,C  21,C  22)          121.1422         0.439014   
     94. A(C  23,C  22,H  33)          118.9617         0.350999   
     95. A(C  21,C  22,H  33)          120.8494         0.361375   
     96. A(C  21,C  22,C  23)          120.1888         0.436678   
     97. A(C  24,C  23,C  28)          118.6362         0.421818   
     98. A(C  22,C  23,C  28)          119.3863         0.421626   
     99. A(C  22,C  23,C  24)          121.9775         0.423626   
    100. A(C  25,C  24,H  32)          120.5568         0.360568   
    101. A(C  23,C  24,H  32)          118.4458         0.350959   
    102. A(C  23,C  24,C  25)          120.9975         0.436101   
    103. A(C  26,C  25,H  31)          119.4540         0.352828   
    104. A(C  24,C  25,H  31)          120.3289         0.360662   
    105. A(C  24,C  25,C  26)          120.2170         0.438457   
    106. A(C  27,C  26,H  30)          120.2278         0.360570   
    107. A(C  25,C  26,H  30)          119.5055         0.352865   
    108. A(C  25,C  26,C  27)          120.2667         0.438290   
    109. A(C  28,C  27,H  29)          118.6220         0.351730   
    110. A(C  26,C  27,H  29)          120.6322         0.360931   
    111. A(C  26,C  27,C  28)          120.7455         0.436326   
    112. A(C  23,C  28,C  27)          119.1366         0.422193   
    113. A(C  19,C  28,C  27)          121.8498         0.419761   
    114. A(C  19,C  28,C  23)          119.0135         0.417414   
    115. D(C   2,C   1,S   0,C   4)      0.1436         0.005191   
    116. D(H  39,C   1,S   0,C   4)   -179.8726         0.005191   
    117. D(H  38,C   2,C   1,H  39)     -0.1875         0.035691   
    118. D(H  38,C   2,C   1,S   0)    179.7942         0.035691   
    119. D(C   3,C   2,C   1,H  39)    179.7442         0.035691   
    120. D(C   3,C   2,C   1,S   0)     -0.2740         0.035691   
    121. D(H  37,C   3,C   2,H  38)     -0.4666         0.022441   
    122. D(H  37,C   3,C   2,C   1)    179.6016         0.022441   
    123. D(C   4,C   3,C   2,H  38)   -179.7690         0.022441   
    124. D(C   4,C   3,C   2,C   1)      0.2991         0.022441   
    125. D(S   0,C   4,C   3,H  37)   -179.4933         0.034467   
    126. D(C   5,C   4,S   0,C   1)    178.2171         0.004887   
    127. D(S   0,C   4,C   3,C   2)     -0.1853         0.034467   
    128. D(C   5,C   4,C   3,C   2)   -178.2066         0.034467   
    129. D(C   5,C   4,C   3,H  37)      2.4854         0.034467   
    130. D(C   3,C   4,S   0,C   1)      0.0271         0.004887   
    131. D(H  36,C   5,C   4,S   0)     32.3567         0.012879   
    132. D(O  18,C   5,C   4,C   3)    -27.9564         0.012879   
    133. D(C   6,C   5,C   4,C   3)     90.7374         0.012879   
    134. D(O  18,C   5,C   4,S   0)    154.1837         0.012879   
    135. D(C   6,C   5,C   4,S   0)    -87.1225         0.012879   
    136. D(H   8,C   6,C   5,O  18)    170.0216         0.010676   
    137. D(H   8,C   6,C   5,C   4)     49.0579         0.010676   
    138. D(H   7,C   6,C   5,H  36)    171.7916         0.010676   
    139. D(H   7,C   6,C   5,O  18)     52.8445         0.010676   
    140. D(H   8,C   6,C   5,H  36)    -71.0313         0.010676   
    141. D(H   7,C   6,C   5,C   4)    -68.1192         0.010676   
    142. D(H  16,C   9,C   6,C   5)   -170.1741         0.010365   
    143. D(N  10,C   9,C   6,H   8)   -171.5876         0.010365   
    144. D(N  10,C   9,C   6,H   7)    -52.9303         0.010365   
    145. D(N  10,C   9,C   6,C   5)     68.3630         0.010365   
    146. D(H  16,C   9,C   6,H   8)    -50.1247         0.010365   
    147. D(H  16,C   9,C   6,H   7)     68.5325         0.010365   
    148. D(C  12,N  10,C   9,H  16)    -52.6463         0.017870   
    149. D(C  12,N  10,C   9,C   6)     69.3017         0.017870   
    150. D(H  11,N  10,C   9,H  17)     67.6675         0.017870   
    151. D(H  11,N  10,C   9,H  16)   -176.4669         0.017870   
    152. D(H  11,N  10,C   9,C   6)    -54.5188         0.017870   
    153. D(H  15,C  12,N  10,C   9)    175.3821         0.017479   
    154. D(H  14,C  12,N  10,H  11)     60.3004         0.017479   
    155. D(H  14,C  12,N  10,C   9)    -63.5776         0.017479   
    156. D(H  13,C  12,N  10,H  11)   -178.5166         0.017479   
    157. D(H  13,C  12,N  10,C   9)     57.6054         0.017479   
    158. D(C  19,O  18,C   5,H  36)     54.1419         0.022393   
    159. D(C  19,O  18,C   5,C   4)    -67.5190         0.022393   
    160. D(C  19,O  18,C   5,C   6)    172.2579         0.022393   
    161. D(C  28,C  19,O  18,C   5)    179.8201         0.030629   
    162. D(C  20,C  19,O  18,C   5)     -0.6825         0.030629   
    163. D(H  35,C  20,C  19,C  28)   -179.3945         0.030980   
    164. D(H  35,C  20,C  19,O  18)      1.1317         0.030980   
    165. D(C  21,C  20,C  19,C  28)      0.2206         0.030980   
    166. D(C  21,C  20,C  19,O  18)   -179.2532         0.030980   
    167. D(H  34,C  21,C  20,H  35)     -0.3490         0.024466   
    168. D(H  34,C  21,C  20,C  19)   -179.9754         0.024466   
    169. D(C  22,C  21,C  20,H  35)    179.5964         0.024466   
    170. D(C  22,C  21,C  20,C  19)     -0.0300         0.024466   
    171. D(H  33,C  22,C  21,H  34)     -0.0596         0.033127   
    172. D(H  33,C  22,C  21,C  20)    179.9961         0.033127   
    173. D(C  23,C  22,C  21,H  34)    179.8509         0.033127   
    174. D(C  23,C  22,C  21,C  20)     -0.0934         0.033127   
    175. D(C  28,C  23,C  22,C  21)      0.0227         0.022994   
    176. D(C  24,C  23,C  22,H  33)     -0.0482         0.022994   
    177. D(C  24,C  23,C  22,C  21)   -179.9604         0.022994   
    178. D(C  28,C  23,C  22,H  33)    179.9348         0.022994   
    179. D(H  32,C  24,C  23,C  28)    179.9422         0.023117   
    180. D(H  32,C  24,C  23,C  22)     -0.0746         0.023117   
    181. D(C  25,C  24,C  23,C  28)     -0.0477         0.023117   
    182. D(C  25,C  24,C  23,C  22)    179.9355         0.023117   
    183. D(H  31,C  25,C  24,H  32)     -0.0421         0.032427   
    184. D(H  31,C  25,C  24,C  23)    179.9476         0.032427   
    185. D(C  26,C  25,C  24,H  32)    179.8733         0.032427   
    186. D(C  26,C  25,C  24,C  23)     -0.1370         0.032427   
    187. D(H  30,C  26,C  25,H  31)      0.0804         0.024614   
    188. D(H  30,C  26,C  25,C  24)   -179.8358         0.024614   
    189. D(C  27,C  26,C  25,H  31)   -179.9439         0.024614   
    190. D(C  27,C  26,C  25,C  24)      0.1399         0.024614   
    191. D(H  29,C  27,C  26,H  30)      0.2458         0.032279   
    192. D(H  29,C  27,C  26,C  25)   -179.7297         0.032279   
    193. D(C  28,C  27,C  26,H  30)   -179.9792         0.032279   
    194. D(C  28,C  27,C  26,C  25)      0.0453         0.032279   
    195. D(C  23,C  28,C  27,H  29)    179.5509         0.023359   
    196. D(C  19,C  28,C  27,H  29)     -0.3670         0.023359   
    197. D(C  19,C  28,C  27,C  26)    179.8535         0.023359   
    198. D(C  27,C  28,C  23,C  24)      0.2275         0.021874   
    199. D(C  27,C  28,C  23,C  22)   -179.7562         0.021874   
    200. D(C  19,C  28,C  23,C  24)   -179.8522         0.021874   
    201. D(C  19,C  28,C  23,C  22)      0.1642         0.021874   
    202. D(C  27,C  28,C  19,C  20)    179.6320         0.020454   
    203. D(C  27,C  28,C  19,O  18)     -0.8422         0.020454   
    204. D(C  23,C  28,C  27,C  26)     -0.2285         0.023359   
    205. D(C  23,C  28,C  19,C  20)     -0.2861         0.020454   
    206. D(C  23,C  28,C  19,O  18)    179.2398         0.020454   
    -----------------------------------------------------------------

Number of atoms                         .... 40
Number of degrees of freedom            .... 206


         *************************************************************
         *                GEOMETRY OPTIMIZATION CYCLE   1            *
         *************************************************************
---------------------------------
CARTESIAN COORDINATES (ANGSTROEM)
---------------------------------
  S      3.664146   -0.979368   -0.458863
  C      3.926816   -1.993686    0.906627
  C      2.955329   -1.851406    1.840213
  C      1.974261   -0.904460    1.465458
  C      2.214626   -0.347854    0.248950
  C      1.420514    0.711593   -0.455783
  C      1.961535    2.101952   -0.089510
  H      1.742028    2.288879    0.962494
  H      3.045097    2.088438   -0.216869
  C      1.372368    3.225183   -0.963866
  N     -0.030624    3.520565   -0.785626
  H     -0.575883    2.672482   -0.905451
  C     -0.366534    4.137222    0.480424
  H      0.206580    5.059591    0.583132
  H     -0.168217    3.508349    1.360343
  H     -1.426544    4.387673    0.470000
  H      1.929719    4.145905   -0.765012
  H      1.518759    2.962971   -2.016990
  O      0.060544    0.671771   -0.067132
  C     -0.707736   -0.398104   -0.422058
  C     -0.274937   -1.472941   -1.158009
  C     -1.159010   -2.513804   -1.479026
  C     -2.460451   -2.485137   -1.070997
  C     -2.941830   -1.398472   -0.310651
  C     -4.279253   -1.330564    0.131416
  C     -4.724051   -0.268671    0.868267
  C     -3.849343    0.775559    1.200417
  C     -2.546185    0.740766    0.787436
  C     -2.061288   -0.339207    0.023596
  H     -1.867101    1.538764    1.043267
  H     -4.212369    1.607886    1.785478
  H     -5.751199   -0.227302    1.200642
  H     -4.948244   -2.139454   -0.125998
  H     -3.136962   -3.288955   -1.320855
  H     -0.785499   -3.344737   -2.059188
  H      0.745909   -1.544845   -1.498010
  H      1.504870    0.575556   -1.546278
  H      1.119813   -0.655201    2.068920
  H      2.932145   -2.397411    2.766055
  H      4.788266   -2.630766    0.925256

----------------------------
CARTESIAN COORDINATES (A.U.)
----------------------------
  NO LB      ZA    FRAG     MASS         X           Y           Z
   0 S    16.0000    0    32.060    6.924232   -1.850738   -0.867126
   1 C     6.0000    0    12.011    7.420606   -3.767520    1.713277
   2 C     6.0000    0    12.011    5.584762   -3.498651    3.477498
   3 C     6.0000    0    12.011    3.730812   -1.709182    2.769314
   4 C     6.0000    0    12.011    4.185036   -0.657349    0.470447
   5 C     6.0000    0    12.011    2.684382    1.344716   -0.861305
   6 C     6.0000    0    12.011    3.706764    3.972113   -0.169149
   7 H     1.0000    0     1.008    3.291956    4.325354    1.818850
   8 H     1.0000    0     1.008    5.754400    3.946575   -0.409823
   9 C     6.0000    0    12.011    2.593400    6.094712   -1.821443
  10 N     7.0000    0    14.007   -0.057870    6.652904   -1.484618
  11 H     1.0000    0     1.008   -1.088261    5.050259   -1.711054
  12 C     6.0000    0    12.011   -0.692648    7.818217    0.907870
  13 H     1.0000    0     1.008    0.390379    9.561241    1.101960
  14 H     1.0000    0     1.008   -0.317883    6.629819    2.570676
  15 H     1.0000    0     1.008   -2.695777    8.291501    0.888172
  16 H     1.0000    0     1.008    3.646641    7.834625   -1.445663
  17 H     1.0000    0     1.008    2.870039    5.599203   -3.811559
  18 O     8.0000    0    15.999    0.114412    1.269463   -0.126861
  19 C     6.0000    0    12.011   -1.337427   -0.752307   -0.797574
  20 C     6.0000    0    12.011   -0.519556   -2.783455   -2.188320
  21 C     6.0000    0    12.011   -2.190212   -4.750401   -2.794954
  22 C     6.0000    0    12.011   -4.649579   -4.696228   -2.023891
  23 C     6.0000    0    12.011   -5.559253   -2.642729   -0.587045
  24 C     6.0000    0    12.011   -8.086617   -2.514401    0.248341
  25 C     6.0000    0    12.011   -8.927163   -0.507716    1.640787
  26 C     6.0000    0    12.011   -7.274204    1.465595    2.268460
  27 C     6.0000    0    12.011   -4.811592    1.399845    1.488039
  28 C     6.0000    0    12.011   -3.895270   -0.641008    0.044590
  29 H     1.0000    0     1.008   -3.528309    2.907843    1.971489
  30 H     1.0000    0     1.008   -7.960223    3.038465    3.374065
  31 H     1.0000    0     1.008  -10.868191   -0.429539    2.268885
  32 H     1.0000    0     1.008   -9.350827   -4.042983   -0.238101
  33 H     1.0000    0     1.008   -5.928000   -6.215224   -2.496054
  34 H     1.0000    0     1.008   -1.484377   -6.320637   -3.891301
  35 H     1.0000    0     1.008    1.409563   -2.919334   -2.830829
  36 H     1.0000    0     1.008    2.843792    1.087643   -2.922042
  37 H     1.0000    0     1.008    2.116140   -1.238151    3.909692
  38 H     1.0000    0     1.008    5.540951   -4.530451    5.227086
  39 H     1.0000    0     1.008    9.048511   -4.971427    1.748480

--------------------------------
INTERNAL COORDINATES (ANGSTROEM)
--------------------------------
 S      0   0   0     0.000000000000     0.00000000     0.00000000
 C      1   0   0     1.721161655830     0.00000000     0.00000000
 C      2   1   0     1.354848007821   112.04654343     0.00000000
 C      3   2   1     1.414087146349   112.65502213   359.72600707
 C      4   3   2     1.359219366658   112.87529140     0.29906977
 C      5   4   3     1.499896801618   128.03528152   181.79342093
 C      6   5   4     1.536215408674   109.92552784    90.73735048
 H      7   6   5     1.090796700723   108.31086387   291.88078325
 H      7   6   5     1.091104738736   108.10162611    49.05790161
 C      7   6   5     1.540540180624   112.94700651   169.51792465
 N     10   7   6     1.444785996384   116.77094767    68.36297368
 H     11  10   7     1.015337472198   109.64307586   305.48117243
 C     11  10   7     1.447751355179   114.85206490    69.30172220
 H     13  11  10     1.090766710249   108.70021036    57.60544270
 H     13  11  10     1.099576431664   114.47825454   296.42240889
 H     13  11  10     1.089245410011   108.38270150   175.38205971
 H     10   7   6     1.094491686515   108.39007999   189.82585148
 H     10   7   6     1.095105299657   108.66918767   306.89189539
 O      6   5   4     1.414974838012   111.09586043   332.04358678
 C     19   6   5     1.364133109162   119.46648380   292.48104147
 C     20  19   6     1.372666538266   125.17263652   359.31745018
 C     21  20  19     1.402865912424   120.32869985   180.74681165
 C     22  21  20     1.364206046861   121.14216331   359.97004944
 C     23  22  21     1.410919063439   120.18884506   359.90659569
 C     24  23  22     1.410225162851   121.97748745   180.03958162
 C     25  24  23     1.366897683295   120.99746511   179.93550662
 C     26  25  24     1.402089900561   120.21704599   359.86299907
 C     27  26  25     1.367473814012   120.26669707     0.13991038
 C     28  27  26     1.408871295390   120.74549499     0.04528129
 H     28  27  26     1.078612714357   120.63215957   180.27028365
 H     27  26  25     1.080209463662   119.50553908   180.16423706
 H     26  25  24     1.080378428453   120.32894383   179.94757636
 H     25  24  23     1.080793955992   118.44577051   359.92539851
 H     23  22  21     1.079916446031   120.84939323   179.99609549
 H     22  21  20     1.080068891791   118.41098350   180.02461715
 H     21  20  19     1.078377216450   121.31408531     1.13169774
 H      6   5   4     1.102180268929   109.70458100   210.21657557
 H      4   3   2     1.075350091465   123.90123389   179.60155940
 H      3   2   1     1.075101096165   123.74755075   179.79424172
 H      2   1   3     1.071594171567   119.13290229   179.98373042

---------------------------
INTERNAL COORDINATES (A.U.)
---------------------------
 S      0   0   0     0.000000000000     0.00000000     0.00000000
 C      1   0   0     3.252524161725     0.00000000     0.00000000
 C      2   1   0     2.560291687871   112.04654343     0.00000000
 C      3   2   1     2.672237436097   112.65502213   359.72600707
 C      4   3   2     2.568552358905   112.87529140     0.29906977
 C      5   4   3     2.834394184202   128.03528152   181.79342093
 C      6   5   4     2.903026405103   109.92552784    90.73735048
 H      7   6   5     2.061307032151   108.31086387   291.88078325
 H      7   6   5     2.061889139635   108.10162611    49.05790161
 C      7   6   5     2.911199039681   112.94700651   169.51792465
 N     10   7   6     2.730249855291   116.77094767    68.36297368
 H     11  10   7     1.918709755962   109.64307586   305.48117243
 C     11  10   7     2.735853571302   114.85206490    69.30172220
 H     13  11  10     2.061250358368   108.70021036    57.60544270
 H     13  11  10     2.077898319159   114.47825454   296.42240889
 H     13  11  10     2.058375517551   108.38270150   175.38205971
 H     10   7   6     2.068289543368   108.39007999   189.82585148
 H     10   7   6     2.069449104157   108.66918767   306.89189539
 O      6   5   4     2.673914930232   111.09586043   332.04358678
 C     19   6   5     2.577837986531   119.46648380   292.48104147
 C     20  19   6     2.593963830520   125.17263652   359.31745018
 C     21  20  19     2.651032377094   120.32869985   180.74681165
 C     22  21  20     2.577975818807   121.14216331   359.97004944
 C     23  22  21     2.666250627029   120.18884506   359.90659569
 C     24  23  22     2.664939344953   121.97748745   180.03958162
 C     25  24  23     2.583062274518   120.99746511   179.93550662
 C     26  25  24     2.649565927197   120.21704599   359.86299907
 C     27  26  25     2.584151003791   120.26669707     0.13991038
 C     28  27  26     2.662380906231   120.74549499     0.04528129
 H     28  27  26     2.038282634700   120.63215957   180.27028365
 H     27  26  25     2.041300053592   119.50553908   180.16423706
 H     26  25  24     2.041619350773   120.32894383   179.94757636
 H     25  24  23     2.042404584023   118.44577051   359.92539851
 H     23  22  21     2.040746330517   120.84939323   179.99609549
 H     22  21  20     2.041034411252   118.41098350   180.02461715
 H     21  20  19     2.037837608152   121.31408531     1.13169774
 H      6   5   4     2.082818858487   109.70458100   210.21657557
 H      4   3   2     2.032117170955   123.90123389   179.60155940
 H      3   2   1     2.031646638030   123.74755075   179.79424172
 H      2   1   3     2.025019510968   119.13290229   179.98373042

---------------------
BASIS SET INFORMATION
---------------------
There are 5 groups of distinct atoms

 Group   1 Type S   : 14s9p1d contracted to 5s4p1d pattern {73211/6111/1}
 Group   2 Type C   : 11s6p1d contracted to 5s3p1d pattern {62111/411/1}
 Group   3 Type H   : 5s contracted to 3s pattern {311}
 Group   4 Type N   : 11s6p1d contracted to 5s3p1d pattern {62111/411/1}
 Group   5 Type O   : 11s6p2d contracted to 5s3p2d pattern {62111/411/11}

Atom   0S    basis set group =>   1
Atom   1C    basis set group =>   2
Atom   2C    basis set group =>   2
Atom   3C    basis set group =>   2
Atom   4C    basis set group =>   2
Atom   5C    basis set group =>   2
Atom   6C    basis set group =>   2
Atom   7H    basis set group =>   3
Atom   8H    basis set group =>   3
Atom   9C    basis set group =>   2
Atom  10N    basis set group =>   4
Atom  11H    basis set group =>   3
Atom  12C    basis set group =>   2
Atom  13H    basis set group =>   3
Atom  14H    basis set group =>   3
Atom  15H    basis set group =>   3
Atom  16H    basis set group =>   3
Atom  17H    basis set group =>   3
Atom  18O    basis set group =>   5
Atom  19C    basis set group =>   2
Atom  20C    basis set group =>   2
Atom  21C    basis set group =>   2
Atom  22C    basis set group =>   2
Atom  23C    basis set group =>   2
Atom  24C    basis set group =>   2
Atom  25C    basis set group =>   2
Atom  26C    basis set group =>   2
Atom  27C    basis set group =>   2
Atom  28C    basis set group =>   2
Atom  29H    basis set group =>   3
Atom  30H    basis set group =>   3
Atom  31H    basis set group =>   3
Atom  32H    basis set group =>   3
Atom  33H    basis set group =>   3
Atom  34H    basis set group =>   3
Atom  35H    basis set group =>   3
Atom  36H    basis set group =>   3
Atom  37H    basis set group =>   3
Atom  38H    basis set group =>   3
Atom  39H    basis set group =>   3
---------------------------------
AUXILIARY/J BASIS SET INFORMATION
---------------------------------
There are 5 groups of distinct atoms

 Group   1 Type S   : 14s5p5d2f1g contracted to 8s4p3d1f1g pattern {71111111/2111/311/2/1}
 Group   2 Type C   : 8s3p3d contracted to 6s3p3d pattern {311111/111/111}
 Group   3 Type H   : 5s2p contracted to 3s1p pattern {311/2}
 Group   4 Type N   : 8s3p3d contracted to 6s3p3d pattern {311111/111/111}
 Group   5 Type O   : 8s3p3d contracted to 6s3p3d pattern {311111/111/111}

Atom   0S    basis set group =>   1
Atom   1C    basis set group =>   2
Atom   2C    basis set group =>   2
Atom   3C    basis set group =>   2
Atom   4C    basis set group =>   2
Atom   5C    basis set group =>   2
Atom   6C    basis set group =>   2
Atom   7H    basis set group =>   3
Atom   8H    basis set group =>   3
Atom   9C    basis set group =>   2
Atom  10N    basis set group =>   4
Atom  11H    basis set group =>   3
Atom  12C    basis set group =>   2
Atom  13H    basis set group =>   3
Atom  14H    basis set group =>   3
Atom  15H    basis set group =>   3
Atom  16H    basis set group =>   3
Atom  17H    basis set group =>   3
Atom  18O    basis set group =>   5
Atom  19C    basis set group =>   2
Atom  20C    basis set group =>   2
Atom  21C    basis set group =>   2
Atom  22C    basis set group =>   2
Atom  23C    basis set group =>   2
Atom  24C    basis set group =>   2
Atom  25C    basis set group =>   2
Atom  26C    basis set group =>   2
Atom  27C    basis set group =>   2
Atom  28C    basis set group =>   2
Atom  29H    basis set group =>   3
Atom  30H    basis set group =>   3
Atom  31H    basis set group =>   3
Atom  32H    basis set group =>   3
Atom  33H    basis set group =>   3
Atom  34H    basis set group =>   3
Atom  35H    basis set group =>   3
Atom  36H    basis set group =>   3
Atom  37H    basis set group =>   3
Atom  38H    basis set group =>   3
Atom  39H    basis set group =>   3


           ************************************************************
           *        Program running with 16 parallel MPI-processes    *
           *              working on a common directory               *
           ************************************************************
------------------------------------------------------------------------------
                             ORCA STARTUP CALCULATIONS
                           -- RI-GTO INTEGRALS CHOSEN --
------------------------------------------------------------------------------
------------------------------------------------------------------------------
                   ___                                                        
                  /   \      - P O W E R E D   B Y -                         
                 /     \                                                     
                 |  |  |   _    _      __       _____    __    __             
                 |  |  |  | |  | |    /  \     |  _  \  |  |  /  |          
                  \  \/   | |  | |   /    \    | | | |  |  | /  /          
                 / \  \   | |__| |  /  /\  \   | |_| |  |  |/  /          
                |  |  |   |  __  | /  /__\  \  |    /   |      \           
                |  |  |   | |  | | |   __   |  |    \   |  |\   \          
                \     /   | |  | | |  |  |  |  | |\  \  |  | \   \       
                 \___/    |_|  |_| |__|  |__|  |_| \__\ |__|  \__/        
                                                                              
                      - O R C A' S   B I G   F R I E N D -                    
                                      &                                       
                       - I N T E G R A L  F E E D E R -                       
                                                                              
 v1 FN, 2020, v2 2021, v3 2022-2024                                           
------------------------------------------------------------------------------


----------------------
SHARK INTEGRAL PACKAGE
----------------------

Number of atoms                             ...     40
Number of basis functions                   ...    464
Number of shells                            ...    248
Maximum angular momentum                    ...      2
Integral batch strategy                     ... SHARK/LIBINT Hybrid
RI-J (if used) integral strategy            ... SPLIT-RIJ (Revised 2003 algorithm where possible)
Printlevel                                  ...      1
Contraction scheme used                     ... SEGMENTED contraction
Prescreening option                         ... SCHWARTZ
   Thresh                                   ... 2.500e-11
   Tcut                                     ... 2.500e-12
   Tpresel                                  ... 2.500e-12 
Coulomb Range Separation                    ... NOT USED
Exchange Range Separation                   ... NOT USED
Multipole approximations                    ... NOT USED
Finite Nucleus Model                        ... NOT USED
CABS basis                                  ... NOT available
Auxiliary Coulomb fitting basis             ... AVAILABLE
   # of basis functions in Aux-J            ...    765
   # of shells in Aux-J                     ...    333
   Maximum angular momentum in Aux-J        ...      4
Auxiliary J/K fitting basis                 ... NOT available
Auxiliary Correlation fitting basis         ... NOT available
Auxiliary 'external' fitting basis          ... NOT available

Checking pre-screening integrals            ... done (  0.0 sec) Dimension = 248
Check shell pair data                       ... done (  0.0 sec)
Shell pair information
Shell pair cut-off parameter TPreSel        ...   2.5e-12
Total number of shell pairs                 ...     30876
Shell pairs after pre-screening             ...     23389
Total number of primitive shell pairs       ...    115977
Primitive shell pairs kept                  ...     55042
          la=0 lb=0:   9392 shell pairs
          la=1 lb=0:   8439 shell pairs
          la=1 lb=1:   1858 shell pairs
          la=2 lb=0:   2400 shell pairs
          la=2 lb=1:   1135 shell pairs
          la=2 lb=2:    165 shell pairs

Calculating one electron integrals          ... done (  0.0 sec)
Calculating RI/J V-Matrix + Cholesky decomp.... done (  0.1 sec)
Calculating Nuclear repulsion               ... done (  0.0 sec) ENN=   1774.223437818011 Eh

Diagonalization of the overlap matrix:
Smallest eigenvalue                        ... 5.277e-06
Time for diagonalization                   ...    0.039 sec
Threshold for overlap eigenvalues          ... 1.000e-07
Number of eigenvalues below threshold      ... 0
Time for construction of square roots      ...    0.012 sec
Total time needed                          ...    0.054 sec

-------------------
DFT GRID GENERATION
-------------------

General Integration Accuracy     IntAcc      ... 4.959
Radial Grid Type                 RadialGrid  ... OptM3 with GC (2021)
Angular Grid (max. ang.)         AngularGrid ... 6 (Lebedev-590)
Angular grid pruning method      GridPruning ... 4 (adaptive)
Weight generation scheme         WeightScheme... mBecke (2022)
Basis function cutoff            BFCut       ... 1.0000e-11
Integration weight cutoff        WCut        ... 1.0000e-14
Partially contracted basis set               ... off
Rotationally invariant grid construction     ... off
Angular grids for H and He will be reduced by one unit
Diffuse basis detected: some atoms will have their outermost
                        angular grid increased by 1.

Total number of grid points                  ...   460880
Total number of batches                      ...     7220
Average number of points per batch           ...       63
Average number of grid points per atom       ...    11522
Initializing property integral containers    ... done (  0.0 sec)

SHARK setup successfully completed in   4.0 seconds

Maximum memory used throughout the entire STARTUP-calculation: 108.5 MB


           ************************************************************
           *        Program running with 16 parallel MPI-processes    *
           *              working on a common directory               *
           ************************************************************
-------------------------------------------------------------------------------
                                 ORCA GUESS
                   Start orbitals & Density for SCF / CASSCF
-------------------------------------------------------------------------------

------------
SCF SETTINGS
------------
Hamiltonian:
 Density Functional     Method          .... DFT(GTOs)
 Exchange Functional    Exchange        .... B973C
 Correlation Functional Correlation     .... B973C
 Gradients option       PostSCFGGA      .... off
 RI-approximation to the Coulomb term is turned on
   Number of AuxJ basis functions       .... 765


General Settings:
 Integral files         IntName         .... m1_00_Duloxetine-GitHubGFN2-B97-3C-TZ
 Hartree-Fock type      HFTyp           .... RHF
 Total Charge           Charge          ....    0
 Multiplicity           Mult            ....    1
 Number of Electrons    NEL             ....  158
 Basis Dimension        Dim             ....  464
 Nuclear Repulsion      ENuc            ....   1774.2234378180 Eh

Convergence Acceleration:
 AO-DIIS                CNVDIIS         .... on
   Start iteration      DIISMaxIt       ....    12
   Startup error        DIISStart       ....  0.200000
   # of expansion vecs  DIISMaxEq       ....     5
   Bias factor          DIISBfac        ....   1.050
   Max. coefficient     DIISMaxC        ....  10.000
 MO-DIIS                CNVKDIIS        .... off
 Trust-Rad. Augm. Hess. CNVTRAH         .... off
 SOSCF                  CNVSOSCF        .... on
   Start iteration      SOSCFMaxIt      ....   150
   Startup grad/error   SOSCFStart      ....  0.003300
   Hessian update       SOSCFHessUp     .... L-BFGS
 Level Shifting         CNVShift        .... on
   Level shift para.    LevelShift      ....    0.2500
   Turn off err/grad.   ShiftErr        ....    0.0010
 Zerner damping         CNVZerner       .... off
 Static damping         CNVDamp         .... on
   Fraction old density DampFac         ....    0.7000
   Max. Damping (<1)    DampMax         ....    0.9800
   Min. Damping (>=0)   DampMin         ....    0.0000
   Turn off err/grad.   DampErr         ....    0.1000

SCF Procedure:
 Maximum # iterations   MaxIter         ....   800
 SCF integral mode      SCFMode         .... Direct
   Integral package                     .... SHARK and LIBINT hybrid scheme
 Reset frequency        DirectResetFreq ....    20
 Integral Threshold     Thresh          ....  2.500e-11 Eh
 Primitive CutOff       TCut            ....  2.500e-12 Eh

Convergence Tolerance:
 Convergence Check Mode ConvCheckMode   .... Total+1el-Energy
 Convergence forced     ConvForced      .... 0
 Energy Change          TolE            ....  1.000e-08 Eh
 1-El. energy change                    ....  1.000e-05 Eh
 Orbital Gradient       TolG            ....  1.000e-05
 Orbital Rotation angle TolX            ....  1.000e-05
 DIIS Error             TolErr          ....  5.000e-07

--------------------------------
INITIAL GUESS: MINIMAL BASIS EHT
--------------------------------
The minimal basis has 128 functions
EHT matrix was diagonalized
Basis set overlap was calculated now projecting the orbitals
Using GuessMode=FMatrix for the initial guess
C*T matrix was formed
Effective Fockian was calculated
Effective Fockian was diagonalized
Initial density was built
                      ------------------
                      INITIAL GUESS DONE
                      ------------------
             **** ENERGY FILE WAS UPDATED (m1_00_Duloxetine-GitHubGFN2-B97-3C-TZ.en.tmp) ****
Finished Guess after   0.3 sec
Maximum memory used throughout the entire GUESS-calculation: 41.6 MB


           ************************************************************
           *        Program running with 16 parallel MPI-processes    *
           *              working on a common directory               *
           ************************************************************

-------------------------------------------------------------------------------------------
                                      ORCA LEAN-SCF
                              memory conserving SCF solver
-------------------------------------------------------------------------------------------

----------------------------------------D-I-I-S--------------------------------------------
Iteration    Energy (Eh)           Delta-E    RMSDP     MaxDP     DIISErr   Damp  Time(sec)
-------------------------------------------------------------------------------------------
               ***  Starting incremental Fock matrix formation  ***
    1    -1222.2201709517428299     0.00e+00  9.10e-03  5.03e-01  8.22e-01  0.700   0.9
Warning: op=0 Small HOMO/LUMO gap (   0.064) - skipping pre-diagonalization
         Will do a full diagonalization
    2    -1223.0445906046454638    -8.24e-01  7.14e-03  3.61e-01  5.61e-01  0.700   0.9
    3    -1223.5791929171571155    -5.35e-01  5.34e-03  3.27e-01  3.80e-01  0.700   0.9
    4    -1223.9457776182096040    -3.67e-01  4.06e-03  2.72e-01  2.56e-01  0.700   0.9
                               ***Turning on AO-DIIS***
    5    -1224.2036231472063719    -2.58e-01  3.34e-03  2.39e-01  1.72e-01  0.700   0.9
    6    -1224.3828602129876799    -1.79e-01  2.32e-03  1.64e-01  1.20e-01  0.700   0.9
    7    -1224.5091355092756658    -1.26e-01  1.58e-03  1.08e-01  8.51e-02  0.700   0.9
    8    -1224.5977363122012775    -8.86e-02  3.68e-03  2.52e-01  6.03e-02  0.000   0.9
    9    -1224.8042301170537485    -2.06e-01  3.22e-04  1.58e-02  5.09e-03  0.000   0.9
   10    -1224.8043684025076345    -1.38e-04  9.15e-05  4.48e-03  3.81e-03  0.000   0.9
                              *** Initializing SOSCF ***
---------------------------------------S-O-S-C-F--------------------------------------
Iteration    Energy (Eh)           Delta-E    RMSDP     MaxDP     MaxGrad    Time(sec)
--------------------------------------------------------------------------------------
   11    -1224.8044983520651385    -1.30e-04  4.70e-05  1.92e-03  1.06e-03     0.9
               *** Restarting incremental Fock matrix formation ***
   12    -1224.8045139405555801    -1.56e-05  5.96e-05  2.21e-03  3.46e-04     0.9
   13    -1224.8045058235504712     8.12e-06  3.29e-05  1.37e-03  7.96e-04     0.8
   14    -1224.8045156244581904    -9.80e-06  1.50e-05  6.04e-04  5.22e-05     0.8
   15    -1224.8045150182726957     6.06e-07  1.43e-05  6.75e-04  1.29e-04     0.8
   16    -1224.8045157433014083    -7.25e-07  1.53e-05  8.32e-04  2.40e-05     0.8
   17    -1224.8045156587784277     8.45e-08  5.44e-06  2.22e-04  5.96e-05     0.8
   18    -1224.8045157860572090    -1.27e-07  2.19e-05  1.67e-03  2.37e-06     0.8
                  *** Gradient check signals convergence ***

               *****************************************************
               *                     SUCCESS                       *
               *           SCF CONVERGED AFTER  18 CYCLES          *
               *****************************************************

             **** ENERGY FILE WAS UPDATED (m1_00_Duloxetine-GitHubGFN2-B97-3C-TZ.en.tmp) ****

----------------
TOTAL SCF ENERGY
----------------

Total Energy       :      -1224.80451578605721 Eh          -33328.62527 eV

Components:
Nuclear Repulsion  :       1774.22343781801078 Eh           48279.07420 eV
Electronic Energy  :      -2999.02795360406799 Eh          -81607.69947 eV
One Electron Energy:      -5197.12435839201771 Eh         -141420.94349 eV
Two Electron Energy:       2198.09640478794972 Eh           59813.24402 eV

Virial components:
Potential Energy   :      -2446.02546271144183 Eh          -66559.73667 eV
Kinetic Energy     :       1221.22094692538440 Eh           33231.11140 eV
Virial Ratio       :          2.00293441483271

DFT components:
N(Alpha)           :       79.000005849952 electrons
N(Beta)            :       79.000005849952 electrons
N(Total)           :      158.000011699905 electrons
E(XC)              :     -145.395309486072 Eh       

---------------
SCF CONVERGENCE
---------------

  Last Energy change         ...    1.2728e-07  Tolerance :   1.0000e-08
  Last MAX-Density change    ...    1.6673e-03  Tolerance :   1.0000e-07
  Last RMS-Density change    ...    2.1872e-05  Tolerance :   5.0000e-09
  Last DIIS Error            ...    1.0584e-03  Tolerance :   5.0000e-07
  Last Orbital Gradient      ...    2.3709e-06  Tolerance :   1.0000e-05
  Last Orbital Rotation      ...    9.0519e-06  Tolerance :   1.0000e-05


----------------
ORBITAL ENERGIES
----------------

  NO   OCC          E(Eh)            E(eV) 
   0   2.0000     -88.061259     -2396.2687 
   1   2.0000     -18.788853      -511.2707 
   2   2.0000     -13.961973      -379.9246 
   3   2.0000      -9.971440      -271.3367 
   4   2.0000      -9.955917      -270.9143 
   5   2.0000      -9.926586      -270.1162 
   6   2.0000      -9.921155      -269.9684 
   7   2.0000      -9.911091      -269.6945 
   8   2.0000      -9.902325      -269.4560 
   9   2.0000      -9.901932      -269.4453 
  10   2.0000      -9.900187      -269.3978 
  11   2.0000      -9.897823      -269.3334 
  12   2.0000      -9.895361      -269.2665 
  13   2.0000      -9.895182      -269.2616 
  14   2.0000      -9.893631      -269.2194 
  15   2.0000      -9.893482      -269.2153 
  16   2.0000      -9.892805      -269.1969 
  17   2.0000      -9.892646      -269.1926 
  18   2.0000      -9.892122      -269.1783 
  19   2.0000      -9.890749      -269.1410 
  20   2.0000      -9.886991      -269.0387 
  21   2.0000      -7.752271      -210.9500 
  22   2.0000      -5.782667      -157.3544 
  23   2.0000      -5.777318      -157.2088 
  24   2.0000      -5.774062      -157.1202 
  25   2.0000      -1.002642       -27.2833 
  26   2.0000      -0.827591       -22.5199 
  27   2.0000      -0.820286       -22.3211 
  28   2.0000      -0.805533       -21.9197 
  29   2.0000      -0.756970       -20.5982 
  30   2.0000      -0.738851       -20.1052 
  31   2.0000      -0.699744       -19.0410 
  32   2.0000      -0.681601       -18.5473 
  33   2.0000      -0.677899       -18.4466 
  34   2.0000      -0.671509       -18.2727 
  35   2.0000      -0.656754       -17.8712 
  36   2.0000      -0.626415       -17.0456 
  37   2.0000      -0.597136       -16.2489 
  38   2.0000      -0.569385       -15.4938 
  39   2.0000      -0.563043       -15.3212 
  40   2.0000      -0.547684       -14.9032 
  41   2.0000      -0.537255       -14.6194 
  42   2.0000      -0.519483       -14.1358 
  43   2.0000      -0.502913       -13.6850 
  44   2.0000      -0.482867       -13.1395 
  45   2.0000      -0.471600       -12.8329 
  46   2.0000      -0.467682       -12.7263 
  47   2.0000      -0.456131       -12.4120 
  48   2.0000      -0.440187       -11.9781 
  49   2.0000      -0.431115       -11.7312 
  50   2.0000      -0.415833       -11.3154 
  51   2.0000      -0.408115       -11.1054 
  52   2.0000      -0.400357       -10.8943 
  53   2.0000      -0.387834       -10.5535 
  54   2.0000      -0.385421       -10.4878 
  55   2.0000      -0.381427       -10.3791 
  56   2.0000      -0.368382       -10.0242 
  57   2.0000      -0.364178        -9.9098 
  58   2.0000      -0.360895        -9.8205 
  59   2.0000      -0.358336        -9.7508 
  60   2.0000      -0.355413        -9.6713 
  61   2.0000      -0.350280        -9.5316 
  62   2.0000      -0.341640        -9.2965 
  63   2.0000      -0.336167        -9.1476 
  64   2.0000      -0.331942        -9.0326 
  65   2.0000      -0.325531        -8.8581 
  66   2.0000      -0.315441        -8.5836 
  67   2.0000      -0.314061        -8.5460 
  68   2.0000      -0.308109        -8.3841 
  69   2.0000      -0.303275        -8.2525 
  70   2.0000      -0.300512        -8.1774 
  71   2.0000      -0.286499        -7.7960 
  72   2.0000      -0.284048        -7.7293 
  73   2.0000      -0.238358        -6.4860 
  74   2.0000      -0.230649        -6.2763 
  75   2.0000      -0.224089        -6.0978 
  76   2.0000      -0.208308        -5.6684 
  77   2.0000      -0.185178        -5.0389 
  78   2.0000      -0.171873        -4.6769 
  79   0.0000      -0.062521        -1.7013 
  80   0.0000      -0.049120        -1.3366 
  81   0.0000      -0.037055        -1.0083 
  82   0.0000      -0.011283        -0.3070 
  83   0.0000       0.001500         0.0408 
  84   0.0000       0.019880         0.5410 
  85   0.0000       0.027556         0.7498 
  86   0.0000       0.043518         1.1842 
  87   0.0000       0.044159         1.2016 
  88   0.0000       0.046511         1.2656 
  89   0.0000       0.051891         1.4120 
*Only the first 10 virtual orbitals were printed.

                    ********************************
                    * MULLIKEN POPULATION ANALYSIS *
                    ********************************

-----------------------
MULLIKEN ATOMIC CHARGES
-----------------------
   0 S :    0.103913
   1 C :   -0.221668
   2 C :   -0.238910
   3 C :   -0.060706
   4 C :   -0.110980
   5 C :   -0.293839
   6 C :   -0.309290
   7 H :    0.188507
   8 H :    0.166827
   9 C :   -0.293438
  10 N :   -0.312400
  11 H :    0.295473
  12 C :   -0.459721
  13 H :    0.167604
  14 H :    0.139914
  15 H :    0.181080
  16 H :    0.181864
  17 H :    0.164498
  18 O :   -0.250731
  19 C :    0.112258
  20 C :   -0.122319
  21 C :   -0.233197
  22 C :   -0.260069
  23 C :    0.085063
  24 C :   -0.267528
  25 C :   -0.175239
  26 C :   -0.170931
  27 C :   -0.198700
  28 C :    0.218531
  29 H :    0.170643
  30 H :    0.165808
  31 H :    0.156704
  32 H :    0.181093
  33 H :    0.176869
  34 H :    0.158615
  35 H :    0.182308
  36 H :    0.226172
  37 H :    0.173386
  38 H :    0.171988
  39 H :    0.210548
Sum of atomic charges:   -0.0000000

--------------------------------
MULLIKEN REDUCED ORBITAL CHARGES
--------------------------------
  0 S s       :     5.872491  s :     5.872491
      pz      :     3.354105  p :     9.910323
      px      :     3.244289
      py      :     3.311930
      dz2     :     0.020219  d :     0.113273
      dxz     :     0.023468
      dyz     :     0.025775
      dx2y2   :     0.028352
      dxy     :     0.015458

  1 C s       :     3.135038  s :     3.135038
      pz      :     0.940333  p :     3.047570
      px      :     1.084419
      py      :     1.022819
      dz2     :     0.010065  d :     0.039060
      dxz     :     0.007282
      dyz     :     0.007891
      dx2y2   :     0.005046
      dxy     :     0.008776

  2 C s       :     3.178941  s :     3.178941
      pz      :     1.045194  p :     3.017351
      px      :     0.950835
      py      :     1.021323
      dz2     :     0.009169  d :     0.042617
      dxz     :     0.009005
      dyz     :     0.009264
      dx2y2   :     0.007958
      dxy     :     0.007221

  3 C s       :     3.120790  s :     3.120790
      pz      :     0.935660  p :     2.897969
      px      :     0.965153
      py      :     0.997156
      dz2     :     0.009270  d :     0.041948
      dxz     :     0.011340
      dyz     :     0.007207
      dx2y2   :     0.007241
      dxy     :     0.006890

  4 C s       :     3.198191  s :     3.198191
      pz      :     0.990180  p :     2.867500
      px      :     0.868020
      py      :     1.009300
      dz2     :     0.010748  d :     0.045290
      dxz     :     0.009800
      dyz     :     0.009959
      dx2y2   :     0.007493
      dxy     :     0.007289

  5 C s       :     3.332672  s :     3.332672
      pz      :     1.077018  p :     2.888078
      px      :     0.745120
      py      :     1.065939
      dz2     :     0.018048  d :     0.073089
      dxz     :     0.012786
      dyz     :     0.007718
      dx2y2   :     0.018592
      dxy     :     0.015945

  6 C s       :     3.165966  s :     3.165966
      pz      :     1.061644  p :     3.100996
      px      :     1.130864
      py      :     0.908489
      dz2     :     0.013382  d :     0.042328
      dxz     :     0.002794
      dyz     :     0.007227
      dx2y2   :     0.013007
      dxy     :     0.005917

  7 H s       :     0.811493  s :     0.811493

  8 H s       :     0.833173  s :     0.833173

  9 C s       :     3.232624  s :     3.232624
      pz      :     1.060385  p :     3.003217
      px      :     0.887386
      py      :     1.055446
      dz2     :     0.014165  d :     0.057597
      dxz     :     0.009518
      dyz     :     0.006744
      dx2y2   :     0.011188
      dxy     :     0.015981

 10 N s       :     3.404368  s :     3.404368
      pz      :     1.366727  p :     3.864805
      px      :     1.119035
      py      :     1.379043
      dz2     :     0.013161  d :     0.043227
      dxz     :     0.005595
      dyz     :     0.003905
      dx2y2   :     0.008342
      dxy     :     0.012223

 11 H s       :     0.704527  s :     0.704527

 12 C s       :     3.272871  s :     3.272871
      pz      :     0.910447  p :     3.136668
      px      :     1.150088
      py      :     1.076133
      dz2     :     0.017177  d :     0.050182
      dxz     :     0.004591
      dyz     :     0.013044
      dx2y2   :     0.007748
      dxy     :     0.007623

 13 H s       :     0.832396  s :     0.832396

 14 H s       :     0.860086  s :     0.860086

 15 H s       :     0.818920  s :     0.818920

 16 H s       :     0.818136  s :     0.818136

 17 H s       :     0.835502  s :     0.835502

 18 O s       :     3.720131  s :     3.720131
      pz      :     1.730605  p :     4.467620
      px      :     1.203710
      py      :     1.533306
      dz2     :     0.006996  d :     0.062980
      dxz     :     0.005352
      dyz     :     0.013170
      dx2y2   :     0.030330
      dxy     :     0.007133

 19 C s       :     3.217053  s :     3.217053
      pz      :     0.972036  p :     2.598833
      px      :     0.767124
      py      :     0.859674
      dz2     :     0.009618  d :     0.071856
      dxz     :     0.011797
      dyz     :     0.011847
      dx2y2   :     0.020240
      dxy     :     0.018354

 20 C s       :     3.058674  s :     3.058674
      pz      :     1.012078  p :     3.023456
      px      :     1.006431
      py      :     1.004947
      dz2     :     0.005313  d :     0.040189
      dxz     :     0.005738
      dyz     :     0.007331
      dx2y2   :     0.012879
      dxy     :     0.008928

 21 C s       :     3.155993  s :     3.155993
      pz      :     1.013614  p :     3.034413
      px      :     0.991088
      py      :     1.029711
      dz2     :     0.003501  d :     0.042791
      dxz     :     0.008645
      dyz     :     0.006875
      dx2y2   :     0.011391
      dxy     :     0.012379

 22 C s       :     3.108027  s :     3.108027
      pz      :     1.017587  p :     3.110543
      px      :     1.090483
      py      :     1.002474
      dz2     :     0.005619  d :     0.041499
      dxz     :     0.007397
      dyz     :     0.005335
      dx2y2   :     0.009318
      dxy     :     0.013830

 23 C s       :     3.411610  s :     3.411610
      pz      :     0.901076  p :     2.453316
      px      :     0.811732
      py      :     0.740508
      dz2     :     0.006697  d :     0.050011
      dxz     :     0.008879
      dyz     :     0.007193
      dx2y2   :     0.013154
      dxy     :     0.014089

 24 C s       :     3.129105  s :     3.129105
      pz      :     1.023857  p :     3.096828
      px      :     0.991262
      py      :     1.081709
      dz2     :     0.006039  d :     0.041595
      dxz     :     0.007107
      dyz     :     0.005373
      dx2y2   :     0.009933
      dxy     :     0.013143

 25 C s       :     3.135148  s :     3.135148
      pz      :     0.990498  p :     2.998126
      px      :     1.034423
      py      :     0.973204
      dz2     :     0.005483  d :     0.041965
      dxz     :     0.006172
      dyz     :     0.007055
      dx2y2   :     0.013436
      dxy     :     0.009819

 26 C s       :     3.099013  s :     3.099013
      pz      :     1.043950  p :     3.029941
      px      :     0.980870
      py      :     1.005121
      dz2     :     0.003524  d :     0.041977
      dxz     :     0.008059
      dyz     :     0.006856
      dx2y2   :     0.011446
      dxy     :     0.012091

 27 C s       :     3.203944  s :     3.203944
      pz      :     0.953456  p :     2.953181
      px      :     1.005443
      py      :     0.994283
      dz2     :     0.005825  d :     0.041574
      dxz     :     0.007379
      dyz     :     0.005345
      dx2y2   :     0.009127
      dxy     :     0.013898

 28 C s       :     3.309776  s :     3.309776
      pz      :     0.905748  p :     2.424034
      px      :     0.856310
      py      :     0.661976
      dz2     :     0.006273  d :     0.047659
      dxz     :     0.008467
      dyz     :     0.006977
      dx2y2   :     0.013717
      dxy     :     0.012225

 29 H s       :     0.829357  s :     0.829357

 30 H s       :     0.834192  s :     0.834192

 31 H s       :     0.843296  s :     0.843296

 32 H s       :     0.818907  s :     0.818907

 33 H s       :     0.823131  s :     0.823131

 34 H s       :     0.841385  s :     0.841385

 35 H s       :     0.817692  s :     0.817692

 36 H s       :     0.773828  s :     0.773828

 37 H s       :     0.826614  s :     0.826614

 38 H s       :     0.828012  s :     0.828012

 39 H s       :     0.789452  s :     0.789452



                     *******************************
                     * LOEWDIN POPULATION ANALYSIS *
                     *******************************

----------------------
LOEWDIN ATOMIC CHARGES
----------------------
   0 S :    0.569529
   1 C :   -0.391024
   2 C :   -0.205693
   3 C :   -0.184829
   4 C :   -0.254476
   5 C :    0.086601
   6 C :   -0.264884
   7 H :    0.174329
   8 H :    0.168494
   9 C :   -0.204999
  10 N :   -0.384943
  11 H :    0.273922
  12 C :   -0.324986
  13 H :    0.147082
  14 H :    0.118673
  15 H :    0.149769
  16 H :    0.152428
  17 H :    0.150572
  18 O :   -0.803639
  19 C :    0.225216
  20 C :   -0.148817
  21 C :   -0.150057
  22 C :   -0.165647
  23 C :   -0.040962
  24 C :   -0.144872
  25 C :   -0.160220
  26 C :   -0.162622
  27 C :   -0.126099
  28 C :   -0.004526
  29 H :    0.187803
  30 H :    0.164397
  31 H :    0.164146
  32 H :    0.167611
  33 H :    0.166751
  34 H :    0.165753
  35 H :    0.180729
  36 H :    0.184189
  37 H :    0.184230
  38 H :    0.171626
  39 H :    0.169443

-------------------------------
LOEWDIN REDUCED ORBITAL CHARGES
-------------------------------
  0 S s       :     5.349445  s :     5.349445
      pz      :     3.389748  p :     9.952374
      px      :     3.247596
      py      :     3.315030
      dz2     :     0.021194  d :     0.128652
      dxz     :     0.025836
      dyz     :     0.029941
      dx2y2   :     0.032720
      dxy     :     0.018961

  1 C s       :     2.987932  s :     2.987932
      pz      :     1.094837  p :     3.324179
      px      :     1.130244
      py      :     1.099098
      dz2     :     0.020926  d :     0.078913
      dxz     :     0.016545
      dyz     :     0.018491
      dx2y2   :     0.009481
      dxy     :     0.013469

  2 C s       :     2.910976  s :     2.910976
      pz      :     1.089865  p :     3.209865
      px      :     1.069225
      py      :     1.050775
      dz2     :     0.017248  d :     0.084852
      dxz     :     0.021245
      dyz     :     0.015506
      dx2y2   :     0.015820
      dxy     :     0.015033

  3 C s       :     2.902225  s :     2.902225
      pz      :     1.074144  p :     3.198763
      px      :     1.072668
      py      :     1.051951
      dz2     :     0.020937  d :     0.083840
      dxz     :     0.021270
      dyz     :     0.015253
      dx2y2   :     0.012548
      dxy     :     0.013831

  4 C s       :     2.923473  s :     2.923473
      pz      :     1.116148  p :     3.236076
      px      :     1.050985
      py      :     1.068944
      dz2     :     0.021969  d :     0.094926
      dxz     :     0.022188
      dyz     :     0.020764
      dx2y2   :     0.015271
      dxy     :     0.014734

  5 C s       :     2.813535  s :     2.813535
      pz      :     1.045729  p :     2.952635
      px      :     0.857602
      py      :     1.049304
      dz2     :     0.033191  d :     0.147229
      dxz     :     0.027247
      dyz     :     0.013142
      dx2y2   :     0.039680
      dxy     :     0.033969

  6 C s       :     2.940561  s :     2.940561
      pz      :     1.123181  p :     3.248992
      px      :     1.091521
      py      :     1.034289
      dz2     :     0.021758  d :     0.075331
      dxz     :     0.004822
      dyz     :     0.014613
      dx2y2   :     0.023177
      dxy     :     0.010960

  7 H s       :     0.825671  s :     0.825671

  8 H s       :     0.831506  s :     0.831506

  9 C s       :     2.920251  s :     2.920251
      pz      :     1.103709  p :     3.176433
      px      :     0.986020
      py      :     1.086704
      dz2     :     0.024401  d :     0.108315
      dxz     :     0.018102
      dyz     :     0.012919
      dx2y2   :     0.022421
      dxy     :     0.030472

 10 N s       :     3.203342  s :     3.203342
      pz      :     1.465703  p :     4.103601
      px      :     1.231778
      py      :     1.406121
      dz2     :     0.021585  d :     0.078000
      dxz     :     0.012184
      dyz     :     0.008181
      dx2y2   :     0.015536
      dxy     :     0.020514

 11 H s       :     0.726078  s :     0.726078

 12 C s       :     2.969791  s :     2.969791
      pz      :     1.011311  p :     3.266131
      px      :     1.146384
      py      :     1.108436
      dz2     :     0.033212  d :     0.089065
      dxz     :     0.008346
      dyz     :     0.023756
      dx2y2   :     0.011940
      dxy     :     0.011811

 13 H s       :     0.852918  s :     0.852918

 14 H s       :     0.881327  s :     0.881327

[...]
 63:   1088.67   0.015859   80.15  0.004546  ( 0.064834  0.017557 -0.005854)
 64:   1092.00   0.000693    3.50  0.000198  (-0.010227  0.007313 -0.006324)
 65:   1112.73   0.019578   98.94  0.005491  (-0.064032 -0.035412 -0.011686)
 66:   1128.19   0.002993   15.13  0.000828  ( 0.005447 -0.013677 -0.024723)
 67:   1147.19   0.001469    7.43  0.000400  (-0.002222 -0.019422 -0.004187)
 68:   1158.38   0.002699   13.64  0.000727  (-0.018276  0.017461  0.009397)
 69:   1166.46   0.001198    6.06  0.000321  ( 0.017192 -0.003985 -0.003027)
 70:   1180.04   0.002342   11.84  0.000619  ( 0.024695  0.001540 -0.002673)
 71:   1181.71   0.003336   16.86  0.000881  ( 0.026430 -0.009108 -0.009968)
 72:   1200.26   0.002734   13.82  0.000711  ( 0.025792  0.005577  0.003808)
 73:   1240.42   0.002346   11.85  0.000590  (-0.022613 -0.008051  0.003737)
 74:   1249.06   0.011274   56.97  0.002817  ( 0.048831 -0.012178  0.016849)
 75:   1252.53   0.000534    2.70  0.000133  (-0.002251 -0.005523  0.009879)
 76:   1259.08   0.017745   89.67  0.004398  ( 0.053817  0.037753  0.008740)
 77:   1291.16   0.014772   74.65  0.003570  ( 0.048548  0.032235  0.013199)
 78:   1309.39   0.002666   13.47  0.000635  (-0.008667 -0.023025  0.005498)
 79:   1347.30   0.000876    4.43  0.000203  (-0.009411  0.010418 -0.002405)
 80:   1361.47   0.002959   14.96  0.000678  ( 0.021604 -0.003906  0.014011)
 81:   1376.82   0.000470    2.38  0.000107  (-0.003256  0.006874  0.006982)
 82:   1384.12   0.001054    5.33  0.000238  ( 0.011851 -0.009819 -0.000870)
 83:   1387.02   0.003217   16.26  0.000724  ( 0.023359 -0.013019 -0.002954)
 84:   1393.38   0.003892   19.67  0.000872  (-0.026938 -0.006337 -0.010287)
 85:   1400.75   0.001472    7.44  0.000328  (-0.018049  0.000155  0.001495)
 86:   1430.33   0.015986   80.79  0.003488  (-0.053733 -0.024297 -0.003187)
 87:   1451.86   0.000311    1.57  0.000067  (-0.003085  0.007575 -0.000224)
 88:   1468.28   0.000745    3.76  0.000158  ( 0.004570  0.008078  0.008492)
 89:   1472.87   0.003985   20.14  0.000844  ( 0.028359  0.006256 -0.001013)
 90:   1474.75   0.001252    6.33  0.000265  (-0.000701  0.001497  0.016192)
 91:   1481.99   0.001315    6.65  0.000277  (-0.007408 -0.012391  0.008278)
 92:   1489.20   0.005170   26.13  0.001083  (-0.026898 -0.017614 -0.007038)
 93:   1496.59   0.001836    9.28  0.000383  ( 0.011439 -0.015865 -0.000545)
 94:   1510.42   0.000811    4.10  0.000168  (-0.005021  0.011559  0.002949)
 95:   1533.32   0.001404    7.09  0.000286  ( 0.015812 -0.000465 -0.005953)
 96:   1542.13   0.005603   28.31  0.001134  ( 0.023016  0.022013  0.010929)
 97:   1571.20   0.000194    0.98  0.000039  ( 0.002847 -0.003831 -0.003966)
 98:   1606.09   0.013528   68.37  0.002629  ( 0.041333  0.028640  0.009993)
 99:   1627.88   0.003488   17.63  0.000669  (-0.012801 -0.019323 -0.011466)
100:   1654.70   0.001115    5.64  0.000210  ( 0.000812  0.011219  0.009156)
101:   2899.32   0.017423   88.05  0.001875  ( 0.003053  0.013235 -0.041120)
102:   2950.87   0.003906   19.74  0.000413  (-0.004752 -0.005537  0.018969)
103:   2972.63   0.010217   51.63  0.001073  (-0.017795 -0.013597  0.023897)
104:   3004.91   0.002225   11.24  0.000231  ( 0.009454 -0.011879 -0.000774)
105:   3012.45   0.013675   69.11  0.001417  (-0.004222  0.037211  0.003757)
106:   3018.24   0.010164   51.37  0.001051  (-0.022506 -0.019128 -0.013362)
107:   3056.27   0.005649   28.55  0.000577  (-0.012702  0.003821  0.020022)
108:   3061.41   0.006853   34.63  0.000699  (-0.025187 -0.007802 -0.001818)
109:   3121.63   0.000341    1.72  0.000034  ( 0.000308 -0.004760 -0.003367)
110:   3127.38   0.000354    1.79  0.000035  (-0.004723  0.002260  0.002812)
111:   3131.13   0.004064   20.54  0.000405  ( 0.010476  0.015638  0.007123)
112:   3142.21   0.008100   40.93  0.000804  (-0.003584  0.023063  0.016114)
113:   3144.25   0.008429   42.60  0.000837  (-0.028149 -0.006042  0.002772)
114:   3160.37   0.001903    9.62  0.000188  ( 0.006673 -0.007922  0.008977)
115:   3174.90   0.001669    8.43  0.000164  (-0.001238  0.009442  0.008563)
116:   3175.33   0.000623    3.15  0.000061  ( 0.004194  0.001897 -0.006331)
117:   3182.48   0.001515    7.66  0.000149  (-0.011484 -0.001170  0.003912)
118:   3212.32   0.000299    1.51  0.000029  ( 0.002776 -0.003083  0.003438)
119:   3489.39   0.000656    3.31  0.000059  ( 0.002520  0.007053 -0.001603)

* The epsilon (eps) is given for a Dirac delta lineshape.
** The dipole moment derivative (T) already includes vibrational overlap.

The first frequency considered to be a vibration is 6
The total number of vibrations considered is 114


--------------------------
THERMOCHEMISTRY AT 298.15K
--------------------------

Temperature         ...   298.15 K
Pressure            ...     1.00 atm
Total Mass          ...   297.42 AMU
Quasi RRHO          ...     True
Cut-Off Frequency   ...     1.00 cm^-1

Throughout the following assumptions are being made:
  (1) The electronic state is orbitally nondegenerate
  (2) There are no thermally accessible electronically excited states
  (3) Hindered rotations indicated by low frequency modes are not
      treated as such but are treated as vibrations and this may
      cause some error
  (4) All equations used are the standard statistical mechanics
      equations for an ideal gas
  (5) All vibrations are strictly harmonic

freq.      22.19  E(vib)   ...       0.56 
freq.      33.12  E(vib)   ...       0.55 
freq.      38.20  E(vib)   ...       0.54 
freq.      43.15  E(vib)   ...       0.53 
freq.      66.10  E(vib)   ...       0.50 
freq.      78.27  E(vib)   ...       0.49 
freq.     100.41  E(vib)   ...       0.46 
freq.     123.56  E(vib)   ...       0.43 
freq.     167.00  E(vib)   ...       0.39 
freq.     172.86  E(vib)   ...       0.38 
freq.     185.40  E(vib)   ...       0.37 
freq.     212.86  E(vib)   ...       0.34 
freq.     219.24  E(vib)   ...       0.33 
freq.     256.58  E(vib)   ...       0.30 
freq.     273.61  E(vib)   ...       0.29 
freq.     287.30  E(vib)   ...       0.27 
freq.     365.40  E(vib)   ...       0.22 
freq.     389.33  E(vib)   ...       0.20 
freq.     401.77  E(vib)   ...       0.19 
freq.     416.43  E(vib)   ...       0.18 
freq.     448.34  E(vib)   ...       0.17 
freq.     482.99  E(vib)   ...       0.15 
freq.     485.47  E(vib)   ...       0.15 
freq.     512.92  E(vib)   ...       0.13 
freq.     523.22  E(vib)   ...       0.13 
freq.     545.84  E(vib)   ...       0.12 
freq.     549.35  E(vib)   ...       0.12 
freq.     578.07  E(vib)   ...       0.11 
freq.     606.01  E(vib)   ...       0.10 
freq.     611.80  E(vib)   ...       0.10 
freq.     635.15  E(vib)   ...       0.09 
freq.     680.40  E(vib)   ...       0.08 
freq.     699.47  E(vib)   ...       0.07 
freq.     736.13  E(vib)   ...       0.06 
freq.     736.74  E(vib)   ...       0.06 
freq.     739.23  E(vib)   ...       0.06 
freq.     748.20  E(vib)   ...       0.06 
freq.     763.21  E(vib)   ...       0.06 
freq.     794.58  E(vib)   ...       0.05 
freq.     803.58  E(vib)   ...       0.05 
freq.     809.23  E(vib)   ...       0.05 
freq.     826.30  E(vib)   ...       0.04 
freq.     832.66  E(vib)   ...       0.04 
freq.     838.94  E(vib)   ...       0.04 
freq.     852.71  E(vib)   ...       0.04 
freq.     880.59  E(vib)   ...       0.04 
freq.     884.93  E(vib)   ...       0.04 
freq.     891.01  E(vib)   ...       0.04 
freq.     892.98  E(vib)   ...       0.03 
freq.     906.28  E(vib)   ...       0.03 
freq.     924.43  E(vib)   ...       0.03 
freq.     954.62  E(vib)   ...       0.03 
freq.    1008.51  E(vib)   ...       0.02 
freq.    1032.30  E(vib)   ...       0.02 
freq.    1040.07  E(vib)   ...       0.02 
freq.    1052.01  E(vib)   ...       0.02 
freq.    1060.69  E(vib)   ...       0.02 
freq.    1088.67  E(vib)   ...       0.02 
freq.    1092.00  E(vib)   ...       0.02 
freq.    1112.73  E(vib)   ...       0.01 
freq.    1128.19  E(vib)   ...       0.01 
freq.    1147.19  E(vib)   ...       0.01 
freq.    1158.38  E(vib)   ...       0.01 
freq.    1166.46  E(vib)   ...       0.01 
freq.    1180.04  E(vib)   ...       0.01 
freq.    1181.71  E(vib)   ...       0.01 
freq.    1200.26  E(vib)   ...       0.01 
freq.    1240.42  E(vib)   ...       0.01 
freq.    1249.06  E(vib)   ...       0.01 
freq.    1252.53  E(vib)   ...       0.01 
freq.    1259.08  E(vib)   ...       0.01 
freq.    1291.16  E(vib)   ...       0.01 
freq.    1309.39  E(vib)   ...       0.01 
freq.    1347.30  E(vib)   ...       0.01 
freq.    1361.47  E(vib)   ...       0.01 
freq.    1376.82  E(vib)   ...       0.01 
freq.    1384.12  E(vib)   ...       0.00 
freq.    1387.02  E(vib)   ...       0.00 
freq.    1393.38  E(vib)   ...       0.00 
freq.    1400.75  E(vib)   ...       0.00 
freq.    1430.33  E(vib)   ...       0.00 
freq.    1451.86  E(vib)   ...       0.00 
freq.    1468.28  E(vib)   ...       0.00 
freq.    1472.87  E(vib)   ...       0.00 
freq.    1474.75  E(vib)   ...       0.00 
freq.    1481.99  E(vib)   ...       0.00 
freq.    1489.20  E(vib)   ...       0.00 
freq.    1496.59  E(vib)   ...       0.00 
freq.    1510.42  E(vib)   ...       0.00 
freq.    1533.32  E(vib)   ...       0.00 
freq.    1542.13  E(vib)   ...       0.00 
freq.    1571.20  E(vib)   ...       0.00 
freq.    1606.09  E(vib)   ...       0.00 
freq.    1627.88  E(vib)   ...       0.00 
freq.    1654.70  E(vib)   ...       0.00 
freq.    2899.32  E(vib)   ...       0.00 
freq.    2950.87  E(vib)   ...       0.00 
freq.    2972.63  E(vib)   ...       0.00 
freq.    3004.91  E(vib)   ...       0.00 
freq.    3012.45  E(vib)   ...       0.00 
freq.    3018.24  E(vib)   ...       0.00 
freq.    3056.27  E(vib)   ...       0.00 
freq.    3061.41  E(vib)   ...       0.00 
freq.    3121.63  E(vib)   ...       0.00 
freq.    3127.38  E(vib)   ...       0.00 
freq.    3131.13  E(vib)   ...       0.00 
freq.    3142.21  E(vib)   ...       0.00 
freq.    3144.25  E(vib)   ...       0.00 
freq.    3160.37  E(vib)   ...       0.00 
freq.    3174.90  E(vib)   ...       0.00 
freq.    3175.33  E(vib)   ...       0.00 
freq.    3182.48  E(vib)   ...       0.00 
freq.    3212.32  E(vib)   ...       0.00 
freq.    3489.39  E(vib)   ...       0.00 

------------
INNER ENERGY
------------

The inner energy is: U= E(el) + E(ZPE) + E(vib) + E(rot) + E(trans)
    E(el)   - is the total energy from the electronic structure calculation
              = E(kin-el) + E(nuc-el) + E(el-el) + E(nuc-nuc)
    E(ZPE)  - the the zero temperature vibrational energy from the frequency calculation
    E(vib)  - the the finite temperature correction to E(ZPE) due to population
              of excited vibrational states
    E(rot)  - is the rotational thermal energy
    E(trans)- is the translational thermal energy

Summary of contributions to the inner energy U:
Electronic energy                ...  -1225.05448235 Eh
Zero point energy                ...      0.32527440 Eh     204.11 kcal/mol
Thermal vibrational correction   ...      0.01631834 Eh      10.24 kcal/mol
Thermal rotational correction    ...      0.00141627 Eh       0.89 kcal/mol
Thermal translational correction ...      0.00141627 Eh       0.89 kcal/mol
-----------------------------------------------------------------------
Total thermal energy                  -1224.71005706 Eh


Summary of corrections to the electronic energy:
(perhaps to be used in another calculation)
Total thermal correction                  0.01915089 Eh      12.02 kcal/mol
Non-thermal (ZPE) correction              0.32527440 Eh     204.11 kcal/mol
-----------------------------------------------------------------------
Total correction                          0.34442529 Eh     216.13 kcal/mol


--------
ENTHALPY
--------

The enthalpy is H = U + kB*T
                kB is Boltzmann's constant
Total thermal energy              ...  -1224.71005706 Eh 
Thermal Enthalpy correction       ...      0.00094421 Eh       0.59 kcal/mol
-----------------------------------------------------------------------
Total Enthalpy                    ...  -1224.70911286 Eh


Note: Only C1 symmetry has been detected, increase convergence thresholds 
      if your molecule has a higher symmetry. Symmetry factor of 1.0 is   
      used for the rotational entropy correction. 
 

Note: Rotational entropy computed according to Herzberg 
Infrared and Raman Spectra, Chapter V,1, Van Nostrand Reinhold, 1945 
Point Group:  C1, Symmetry Number:   1  
Rotational constants in cm-1:     0.012783     0.007148     0.005336 

Vibrational entropy computed according to the QRRHO of S. Grimme
Chem.Eur.J. 2012 18 9955 using a reference frequency of 100.0 cm-1


-------
ENTROPY
-------

The entropy contributions are T*S = T*(S(el)+S(vib)+S(rot)+S(trans))
     S(el)   - electronic entropy
     S(vib)  - vibrational entropy
     S(rot)  - rotational entropy
     S(trans)- translational entropy
The entropies will be listed as multiplied by the temperature to get
units of energy

Electronic entropy                ...      0.00000000 Eh      0.00 kcal/mol
Vibrational entropy               ...      0.02875133 Eh     18.04 kcal/mol
Rotational entropy                ...      0.01637213 Eh     10.27 kcal/mol
Translational entropy             ...      0.02041492 Eh     12.81 kcal/mol
-----------------------------------------------------------------------
Final entropy term                ...      0.06553838 Eh     41.13 kcal/mol

In case the symmetry of your molecule has not been determined correctly
or in case you have a reason to use a different symmetry number we print 
out the resulting rotational entropy values for sn=1,12:

 non-linear molecules -----------------------------------
|  sn= 1 | S(rot)=       0.01637213 Eh     10.27 kcal/mol|
|  sn= 2 | S(rot)=       0.01571767 Eh      9.86 kcal/mol|
|  sn= 3 | S(rot)=       0.01533484 Eh      9.62 kcal/mol|
|  sn= 4 | S(rot)=       0.01506322 Eh      9.45 kcal/mol|
|  sn= 5 | S(rot)=       0.01485253 Eh      9.32 kcal/mol|
|  sn= 6 | S(rot)=       0.01468038 Eh      9.21 kcal/mol|
|  sn= 7 | S(rot)=       0.01453484 Eh      9.12 kcal/mol|
|  sn= 8 | S(rot)=       0.01440876 Eh      9.04 kcal/mol|
|  sn= 9 | S(rot)=       0.01429755 Eh      8.97 kcal/mol|
|  sn=10 | S(rot)=       0.01419807 Eh      8.91 kcal/mol|
|  sn=11 | S(rot)=       0.01410808 Eh      8.85 kcal/mol|
|  sn=12 | S(rot)=       0.01402593 Eh      8.80 kcal/mol|
 linear molecules ---------------------------------------
|  Dinfh | S(rot)=       0.01026699 Eh      6.44 kcal/mol|
|  Cinfv | S(rot)=       0.01092145 Eh      6.85 kcal/mol|
 --------------------------------------------------------


-------------------
GIBBS FREE ENERGY
-------------------

The Gibbs free energy is G = H - T*S

Total enthalpy                    ...  -1224.70911286 Eh 
Total entropy correction          ...     -0.06553838 Eh    -41.13 kcal/mol
-----------------------------------------------------------------------
Final Gibbs free energy         ...  -1224.77465123 Eh

For completeness - the Gibbs free energy minus the electronic energy
G-E(el)                           ...      0.27983112 Eh    175.60 kcal/mol


Maximum memory used throughout the entire PROP-calculation: 129.6 MB

--------------------------------
SUGGESTED CITATIONS FOR THIS RUN
--------------------------------

Below you find a list of papers that are relevant to this ORCA run
We neither can nor want to force you to cite these papers, but we appreciate if you do
You receive ORCA, which is the product of decades of hard work by many enthusiastic individuals, for free
The only thing we kindly ask in return is that you cite our papers,
We deeply appreciate it, if you show your appreciation for ORCA by not just citing the generic ORCA reference.

Please note that relegating all ORCA citations to the supporting information does *not* help us.
SI sections are not indexed - citations you put there will not count into any citation statistics
But we need these citations in order to attract the funding resources that allow us to do what we are doing

Therefore, if you are a happy ORCA user, please consider citing a few of the papers listed below in the main body of your paper

In addition to the list printed below, the program has created the file m1_00_Duloxetine-GitHubGFN2-B97-3C-TZ.bibtex that contains the list in bibtex format
You can import this file easily into all common literature databanks and citation aid programs


List of essential papers. We consider these as the minimum necessary citations

  1. Neese,F.
     Software update: the ORCA program system, version 5.0
     WIRES Comput. Molec. Sci., 2022 12(1)e1606
     doi.org/10.1002/wcms.1606

List of papers to cite with high priority. The work reported in these papers was absolutely
necessary for this run to complete.
Our perspective: the developers of density functionals and basis sets usually get cited in chemistry papers
Good! But without the algorithms to do something with them, the functionals or basis sets would not do anything.
Hence, in our opinion, the algorithm design and method developments papers are equally worthy of getting cited

  1. Neese,F.
     An improvement of the resolution of the identity approximation for the formation of the Coulomb matrix
     J. Comp. Chem., 2003 24(14)1740-1747
     doi.org/10.1002/jcc.10318
  2. Bykov,D.; Petrenko,T.; Izsak,R.; Kossmann,S.; Becker,U.; Valeev,E.; Neese,F.
     Efficient implementation of the analytic second derivatives of Hartree-Fock and hybrid DFT energies: a detailed analysis of different approximations
     Molec. Phys., 2015 113 1961-1977
     doi.org/10.1080/00268976.2015.1025114
  3. Neese,F.
     The SHARK Integral Generation and Digestion System
     J. Comp. Chem., 2022  1-16
     doi.org/10.1002/jcc.26942
  4. Grimme,S.; Antony,J.; Ehrlich,S.; Krieg,H.
     A consistent and accurate ab initio parametrization of density functional dispersion correction (DFT-D) for the 94 elements H-Pu
     J. Chem. Phys., 2010 132 154104
     doi.org/10.1063/1.3382344
  5. Grimme,S.; Ehrlich,S.; Goerigk,L.
     Effect of the damping function in dispersion corrected density functional theory
     J. Comput. Chem., 2011 32(7)1456-1465
     doi.org/10.1002/jcc.21759

List of suggested additional citations. These are papers that are important in the 'surrounding' of 
of this run, or papers that preceded the highly important papers. If you like your results we are grateful for a citation.

  1. Neese,F.
     The ORCA program system
     WIRES Comput. Molec. Sci., 2012 2(1)73-78
     doi.org/10.1002/wcms.81
  2. Neese,F.
     Software update: the ORCA program system, version 4.0
     WIRES Comput. Molec. Sci., 2018 8(1)1-6
     doi.org/10.1002/wcms.1327
  3. Neese,F.; Wennmohs,F.; Becker,U.; Riplinger,C.
     The ORCA quantum chemistry program package
     J. Chem. Phys., 2020 152 Art. No. L224108
     doi.org/10.1063/5.0004608

List of optional additional citations

  1. Neese,F.
     Approximate second-order SCF convergence for spin unrestricted wavefunctions
     Chem. Phys. Lett., 2000 325(1-3)93-98
     doi.org/10.1016/s0009-2614(00)00662-x

Timings for individual modules:

Sum of individual times          ...      542.978 sec (=   9.050 min)
Startup calculation              ...       44.757 sec (=   0.746 min)   8.2 %
SCF iterations                   ...      112.240 sec (=   1.871 min)  20.7 %
Property integrals               ...      121.869 sec (=   2.031 min)  22.4 %
SCF Response                     ...      144.097 sec (=   2.402 min)  26.5 %
Property calculations            ...       59.525 sec (=   0.992 min)  11.0 %
SCF Gradient evaluation          ...       60.253 sec (=   1.004 min)  11.1 %
Geometry relaxation              ...        0.237 sec (=   0.004 min)   0.0 %
                             ****ORCA TERMINATED NORMALLY****
TOTAL RUN TIME: 0 days 0 hours 9 minutes 6 seconds 150 msec
