
                                 *****************
                                 * O   R   C   A *
                                 *****************

                                            #,                                       
                                            ###                                      
                                            ####                                     
                                            #####                                    
                                            ######                                   
                                           ########,                                 
                                     ,,################,,,,,                         
                               ,,#################################,,                 
                          ,,##########################################,,             
                       ,#########################################, ''#####,          
                    ,#############################################,,   '####,        
                  ,##################################################,,,,####,       
                ,###########''''           ''''###############################       
              ,#####''   ,,,,##########,,,,          '''####'''          '####       
            ,##' ,,,,###########################,,,                        '##       
           ' ,,###''''                  '''############,,,                           
         ,,##''                                '''############,,,,        ,,,,,,###''
      ,#''                                            '''#######################'''  
     '                                                          ''''####''''         
             ,#######,   #######,   ,#######,      ##                                
            ,#'     '#,  ##    ##  ,#'     '#,    #''#        ,####,   ,####,        
            ##       ##  ##   ,#'  ##            #'  '#       #'       #'  '#        
            ##       ##  #######   ##           ,######,      #####,   #    #        
            '#,     ,#'  ##    ##  '#,     ,#' ,#      #,     #,   #   #,  ,#        
             '#######'   ##     ##  '#######'  #'      '#     '####' # '####'        



                #########################################################
                #                        -***-                          #
                #          Department of theory and spectroscopy        #
                #                                                       #
                #                      Frank Neese                      #
                #                                                       #
                #     Directorship, Architecture, Infrastructure        #
                #                    SHARK, DRIVERS                     #
                #        Core code/Algorithms in most modules           #
                #                                                       #
                #        Max Planck Institute fuer Kohlenforschung      #
                #                Kaiser Wilhelm Platz 1                 #
                #                 D-45470 Muelheim/Ruhr                 #
                #                      Germany                          #
                #                                                       #
                #                  All rights reserved                  #
                #                        -***-                          #
                #########################################################


                         Program Version 6.0.1  -  RELEASE   -


 With contributions from (in alphabetic order):
[Max-Planck-Institut fuer Kohlenforschung]                               
  Daniel Aravena         : Magnetic Suceptibility                        
  Michael Atanasov       : Ab Initio Ligand Field Theory (pilot matlab implementation)
  Alexander A. Auer      : GIAO ZORA, VPT2 properties, NMR spectrum      
  Ute Becker             : All parallelization in ORCA, NUMFREQ, NUMCALC 
  Giovanni Bistoni       : ED, misc. LED, open-shell LED, HFLD           
  Martin Brehm           : Molecular dynamics                            
  Dmytro Bykov           : pre 5.0 version of the SCF Hessian            
  Marcos Casanova-Páez   : Triplet and SCS-CIS(D). UHF-(DLPNO)-IP/EA/STEOM-CCSD. UHF-CVS-IP/STEOM-CCSD   
  Vijay G. Chilkuri      : MRCI spin determinant printing, contributions to CSF-ICE 
  Pauline Colinet        : FMM embedding                                 
  Dipayan Datta          : RHF DLPNO-CCSD density                        
  Achintya Kumar Dutta   : EOM-CC, STEOM-CC                              
  Nicolas Foglia         : Exact transition moments, OPA infrastructure, MCD improvements    
  Dmitry Ganyushin       : Spin-Orbit,Spin-Spin,Magnetic field MRCI      
  Miquel Garcia-Rates    : C-PCM and meta-GGA Hessian, CCSD/C-PCM, Gaussian charge scheme 
  Tiago L. C. Gouveia    : GS-ROHF, GS-ROCIS                             
  Yang Guo               : DLPNO-NEVPT2, F12-NEVPT2, CIM, IAO-localization        
  Andreas Hansen         : Spin unrestricted coupled pair/coupled cluster methods 
  Ingolf Harden          : AUTO-CI MPn and infrastructure                
  Benjamin Helmich-Paris : MC-RPA, TRAH-(SCF,CASSCF), AVAS, COSX integrals, SCF dyn. polar. 
  Lee Huntington         : MR-EOM, pCC                                   
  Robert Izsak           : Overlap fitted RIJCOSX, COSX-SCS-MP3, EOM     
  Riya Kayal             : Wick's Theorem for AUTO-CI, AUTO-CI UHF-CCSDT 
  Emily Kempfer          : AUTO-CI, RHF CISDT and CCSDT                  
  Christian Kollmar      : KDIIS, OOCD, Brueckner-CCSD(T), CCSD density, CASPT2, CASPT2-K, improved NEVPT2 
  Axel Koslowski         : Symmetry handling                             
  Simone Kossmann        : meta-GGA functionals, TD-DFT gradient, OOMP2, (MP2 Hessian; deprecated post 5.0) 
  Lucas Lang             : DCDCAS                                        
  Marvin Lechner         : AUTO-CI (C++ implementation), FIC-MRCC        
  Spencer Leger          : CASSCF response                               
  Dagmar Lenk            : GEPOL surface, SMD, ORCA-2-JSON               
  Dimitrios Liakos       : Extrapolation schemes; Compound Job, initial MDCI parallelization 
  Dimitrios Manganas     : Further ROCIS development; embedding schemes. LFT, Crystal Embedding 
  Dimitrios Pantazis     : SARC Basis sets                               
  Anastasios Papadopoulos: AUTO-CI, single reference methods and gradients 
  Taras Petrenko         : pre 6.0 DFT Hessian and TD-DFT gradient, (ASA, deprecated), ECA, 1-Electron XAS/XES, NRVS 
  Peter Pinski           : DLPNO-MP2, DLPNO-MP2 Gradient                 
  Christoph Reimann      : Effective Core Potentials                     
  Marius Retegan         : Local ZFS, SOC                                
  Christoph Riplinger    : Optimizer, TS searches, QM/MM, DLPNO-CCSD(T), (RO)-DLPNO pert. Triples 
  Michael Roemelt        : Original ROCIS implementation                 
  Masaaki Saitow         : Open-shell DLPNO-CCSD energy and density      
  Barbara Sandhoefer     : DKH picture change effects                    
  Kantharuban Sivalingam : CASSCF convergence/infrastructure, NEVPT2 and variants, FIC-MRCI 
  Bernardo de Souza      : ESD, SOC TD-DFT                               
  Georgi L. Stoychev     : AutoAux, RI-MP2 NMR, DLPNO-MP2 response, X2C  
  Van Anh Tran           : RI-MP2 g-tensors                              
  Willem Van den Heuvel  : Paramagnetic NMR                              
  Zikuan Wang            : NOTCH, Electric field optimization            
  Frank Wennmohs         : Technical directorship and infrastructure     
  Hang Xu                : AUTO-CI-Response properties                   
                                                                         
[FACCTs GmbH]                                                            
  Markus Bursch, Miquel Garcia-Rates, Christoph Riplinger, Bernardo de Souza, Georgi L. Stoychev 
                                                                 
  APM, Basis sets (HGBS, AHGBS, def-TZVP (Ac-Lr), def2-XVPD (La-Lu)), CI-OPT, improved COSX, DLPNO-Multilevel,           
  DOCKER, DRACO, updates on ESD, GOAT, IRC, LR-CPCM, MBIS, meta-GGA TD-DFT gradient, ML-optimized integration grids, 
  MM, NACMEs, nearIR, NEB, NEB-TS, NL-DFT gradient (VV10), 2- and 3-layer-ONIOM, interface openCOSMO-RS, QMMM,   
  Crystal-QMMM, SF, symmetry and pop. for TD-DFT, r2SCAN hybrids, SOLVATOR                                   
                                                                         
[Other institutions]                                                     
  V. Asgeirsson          : NEB                                           
  Christoph Bannwarth    : sTDA-DFT, sTD-DFT, PBEh-3c, B97-3c, D3        
  Sebastian Ehlert       : rSCAN, r2SCAN, r2SCAN-3c, D4, dhf basis sets  
  Marvin Friede          : D4 for Fr, Ra, Ac-Lr                          
  Lars Goerigk           : TD-DFT with DH, B97 family of functionals     
  Stefan Grimme          : VdW corrections, initial TS optimization, DFT functionals, gCP, sTDA/sTD-DF 
  Waldemar Hujo          : DFT-NL                                        
  H. Jonsson             : NEB                                           
  Holger Kruse           : gCP                                           
  Marcel Mueller         : wB97X-3c, vDZP basis set                      
  Hagen Neugebauer       : wr2SCAN                                       
  Tobias Risthaus        : range-separated hybrid DFT                    
  Lukas Wittmann         : regularized MP2, r2SCAN double-hybrids, wr2SCAN        
                                                                         
We gratefully acknowledge several colleagues who have allowed us to      
interface, adapt or use parts of their codes:                            
  Ed Valeev, F. Pavosevic, A. Kumar             : LibInt (2-el integral package), F12 methods 
  Garnet Chan, S. Sharma, J. Yang, R. Olivares  : DMRG                   
  Ulf Ekstrom                                   : XCFun DFT Library      
  Mihaly Kallay                                 : mrcc  (arbitrary order and MRCC methods)
  Frank Weinhold                                : gennbo (NPA and NBO analysis)           
  Simon Mueller                                 : openCOSMO-RS                            
  Christopher J. Cramer and Donald G. Truhlar   : smd solvation model                     
  S Lehtola, MJT Oliveira, MAL Marques          : LibXC Library                           
  Liviu Ungur et al                             : ANISO software                          


 Your calculation uses the libint2 library for the computation of 2-el integrals
 For citations please refer to: http://libint.valeyev.net

 Your ORCA version has been built with support for libXC version: 6.2.2
 For citations please refer to: https://libxc.gitlab.io

 This ORCA versions uses:
   CBLAS   interface :  Fast vector & matrix operations
   LAPACKE interface :  Fast linear algebra routines
   SCALAPACK package :  Parallel linear algebra routines
   Shared memory     :  Shared parallel matrices
   BLAS/LAPACK       :  OpenBLAS 0.3.27  USE64BITINT DYNAMIC_ARCH NO_AFFINITY Zen SINGLE_THREADED
        Core in use  :  Zen
   Copyright (c) 2011-2014, The OpenBLAS Project


NOTE: MaxCore=6000 MB was set to SCF,MP2,MDCI,CIPSI,MRCI and CIS
      => If you want to overwrite this, your respective input block should be placed after the MaxCore statement
Your calculation utilizes the atom-pairwise dispersion correction
with the Becke-Johnson damping scheme (D3BJ)


Your calculation employs the composite approach B97-3c by Grimme and coworkers.
For the correct reference, please check the publication list of the Grimme group:
http://www.thch.uni-bonn.de/tc/index.php?section=publikationen&subsection=grimme#2017
   

XCFun DFT library Copyright 2009-2010 Ulf Ekstrom and contributors.
See http://admol.org/xcfun for more information.
This is free software; see the source code for copying conditions.
There is ABSOLUTELY NO WARRANTY; not even for MERCHANTABILITY or FITNESS FOR A PARTICULAR PURPOSE.
For details see the documentation.
Scientific users of this library should cite U. Ekstrom, L. Visscher, R. Bast, A. J. Thorvaldsen and K. Ruud;
J.Chem.Theor.Comp. 2010, DOI: 10.1021/ct100117s
XCFun Version 0.99 

================================================================================

----- Orbital basis set information -----
Your calculation utilizes the basis: def2-mTZVP
----- AuxJ basis set information -----
Your calculation utilizes the basis: def2-mTZVP/J
================================================================================
                                        WARNINGS
                       Please study these warnings very carefully!
================================================================================


WARNING: Geometry Optimization
  ===> : Switching off AutoStart
         For restart on a previous wavefunction, please use MOREAD

================================================================================
                                       INPUT FILE
================================================================================
NAME = m1_00_Tamiflu-GitHubGFN2-B97-3C-TZ.inp
|  1> %pal nprocs 16 end
|  2> %MaxCore 6000
|  3> # put your comments here
|  4> ! B97-3C  OPT  FREQ DEFGRID3 NOTRAH
|  5> %scf MaxIter 800 end
|  6> %output
|  7> Print [P_Hirshfeld] 1
|  8> end
|  9> %geom
| 10> MaxIter 3000
| 11>  TolE 1e-6 #TolE 5e-6 Energy change (a.u.)
| 12>  TolRMSG 3e-5 #TolRMSG 1e-4 RMS gradient (a.u.)
| 13>  TolMaxG 1e-4 #TolMaxG 3e-3 Max. element of gradient (a.u.)
| 14>  TolRMSD 2e-3 #TolRMSD 2e-3 RMS displacement (a.u.)
| 15>  TolMaxD 4e-3 #TolMaxD 4e-3 Max. displacement (a.u.)
| 16> end
| 17> * xyz 0 1
| 18>  O         1.4318770435        -1.3987039624         0.8618801290
| 19>  C         1.4622190503        -2.0435610183        -0.4128438426
| 20>  C         1.4914560403        -3.5585770079        -0.1721237762
| 21>  C         0.1940680329        -4.0893149749         0.4245572367
| 22>  H         0.2556780258        -5.1672479695         0.5556662844
| 23>  H         0.0159830274        -3.6375189315         1.3972612155
| 24>  H        -0.6507649611        -3.8709729989        -0.2258717796
| 25>  H         2.3125120337        -3.7784889826         0.5100382399
| 26>  H         1.6878940453        -4.0545410505        -1.1239887530
| 27>  C         2.6802000593        -1.5891890609        -1.2380478528
| 28>  C         4.0024600523        -1.8193840362        -0.5144308323
| 29>  H         3.9301320462        -1.4494559912         0.5055721510
| 30>  H         4.8041580592        -1.2915640628        -1.0256048490
| 31>  H         4.2544500465        -2.8759610362        -0.4813547840
| 32>  H         2.5871030667        -0.5279060703        -1.4687738999
| 33>  H         2.6722020638        -2.1296601020        -2.1862798293
| 34>  H         0.5471610560        -1.7884470376        -0.9669238610
| 35>  C         0.5361550479        -0.3265389502         1.0317370751
| 36>  C        -0.8849079512        -0.6601959577         0.6879710784
| 37>  C        -1.7578539424         0.2223960259         0.2015820329
| 38>  C        -3.1317529427        -0.2547339803        -0.1020309572
| 39>  O        -3.5069619500        -1.3909749711         0.0630070895
| 40>  O        -3.9007229335         0.7188660020        -0.6013920059
| 41>  C        -5.2487679328         0.3782779950        -0.9238470016
| 42>  C        -6.1451539422         0.4333200535         0.3049989889
| 43>  H        -7.1720999410         0.2291660465         0.0162729897
| 44>  H        -6.0931849407         1.4171870734         0.7651379463
| 45>  H        -5.8270679519        -0.3135799165         1.0281620240
| 46>  H        -5.5556489230         1.1145889640        -1.6694910362
| 47>  H        -5.2665729347        -0.6264550237        -1.3588889579
| 48>  C        -1.4218579327         1.6555460120        -0.0715300270
| 49>  H        -1.3526749234         1.8069849644        -1.1528830332
| 50>  H        -2.2226839321         2.3040820319         0.2844259382
| 51>  C        -0.0982509358         2.0690750333         0.5770289654
| 52>  N         0.2832170753         3.3755330098         0.0839519113
| 53>  H         0.5019920827         3.3230169653        -0.9064170847
| 54>  H         1.1182100732         3.7056710259         0.5551569035
| 55>  H        -0.2378049438         2.1579930815         1.6620649604
| 56>  C         0.9515190606         0.9623080156         0.3026950221
| 57>  N         2.2783030595         1.3634620266         0.7129250149
| 58>  C         3.2003040690         1.8256599834        -0.1646719978
| 59>  O         2.9424700792         2.0308809336        -1.3328350088
| 60>  C         4.5593670653         2.0720790031         0.4528780022
| 61>  H         4.9924310578         1.1261600147         0.7712850468
| 62>  H         5.2105200735         2.5306129675        -0.2853440127
| 63>  H         4.4731600619         2.7271440414         1.3169899728
| 64>  H         2.5537400508         1.1446480666         1.6570940268
| 65>  H         0.9909900683         0.7941319682        -0.7795729703
| 66>  H        -1.2008869579        -1.6783649484         0.8625311203
| 67>  H         0.5869620404        -0.1334279030         2.1167160670
| 68> *
| 69> 
| 70> 
| 71> 
| 72> 
| 73>                          ****END OF INPUT****
================================================================================

                       *****************************
                       * Geometry Optimization Run *
                       *****************************

Geometry optimization settings:
Update method            Update   .... BFGS
Choice of coordinates    CoordSys .... (2022) Redundant Internals
Initial Hessian          InHess   .... Almloef's Model
Max. no of cycles        MaxIter  .... 3000

Convergence Tolerances:
Energy Change            TolE     ....  1.0000e-06 Eh
Max. Gradient            TolMAXG  ....  1.0000e-04 Eh/bohr
RMS Gradient             TolRMSG  ....  3.0000e-05 Eh/bohr
Max. Displacement        TolMAXD  ....  4.0000e-03 bohr
RMS Displacement         TolRMSD  ....  2.0000e-03 bohr
Strict Convergence                .... False

------------------------------------------------------------------------------
                        ORCA OPTIMIZATION COORDINATE SETUP
------------------------------------------------------------------------------

The optimization will be done in redundant internal coordinates (2022)
Making redundant internal coordinates   ...  (2022 redundants) done
Evaluating the initial hessian          ...  (Almloef) done
Evaluating the coordinates              ...  done
Calculating the B-matrix                .... done
Calculating the G-matrix                .... done
Diagonalizing the G-matrix              .... done
Small eigenvalue found = 2.604e-03
Small eigenvalue found = 4.250e-03
Small eigenvalue found = 5.323e-03
Small eigenvalue found = 6.952e-03
Small eigenvalue found = 8.500e-03
Small eigenvalue found = 1.399e-02
Small eigenvalue found = 1.749e-02
Small eigenvalue found = 2.324e-02
Small eigenvalue found = 2.735e-02
The first mode is                       ....   94
The number of degrees of freedom        ....  144

    -----------------------------------------------------------------
                    Redundant Internal Coordinates


    -----------------------------------------------------------------
         Definition                    Initial Value    Approx d2E/dq
    -----------------------------------------------------------------
      1. B(C   1,O   0)                  1.4289         0.485125   
      2. B(C   2,C   1)                  1.5343         0.367721   
      3. B(C   3,C   2)                  1.5235         0.382660   
      4. B(H   4,C   3)                  1.0876         0.363258   
      5. B(H   5,C   3)                  1.0872         0.363834   
      6. B(H   6,C   3)                  1.0883         0.362309   
      7. B(H   7,C   2)                  1.0899         0.360258   
      8. B(H   8,C   2)                  1.0912         0.358578   
      9. B(C   9,C   1)                  1.5398         0.360404   
     10. B(C  10,C   9)                  1.5248         0.380794   
     11. B(H  11,C  10)                  1.0874         0.363528   
     12. B(H  12,C  10)                  1.0875         0.363449   
     13. B(H  13,C  10)                  1.0867         0.364473   
     14. B(H  14,C   9)                  1.0901         0.360025   
     15. B(H  15,C   9)                  1.0915         0.358155   
     16. B(H  16,C   1)                  1.0997         0.347448   
     17. B(C  17,O   0)                  1.4074         0.524993   
     18. B(C  18,C  17)                  1.4996         0.417651   
     19. B(C  19,C  18)                  1.3333         0.769602   
     20. B(C  20,C  19)                  1.4857         0.439528   
     21. B(O  21,C  20)                  1.2079         1.092390   
     22. B(O  22,C  20)                  1.3374         0.678945   
     23. B(C  23,O  22)                  1.4273         0.487928   
     24. B(C  24,C  23)                  1.5220         0.384663   
     25. B(H  25,C  24)                  1.0861         0.365268   
     26. B(H  26,C  24)                  1.0874         0.363566   
     27. B(H  27,C  24)                  1.0872         0.363824   
     28. B(H  28,C  23)                  1.0919         0.357554   
     29. B(H  29,C  23)                  1.0950         0.353521   
     30. B(C  30,C  19)                  1.4971         0.421519   
     31. B(H  31,C  30)                  1.0941         0.354723   
     32. B(H  32,C  30)                  1.0902         0.359781   
     33. B(C  33,C  30)                  1.5309         0.372379   
     34. B(N  34,C  33)                  1.4476         0.452916   
     35. B(H  35,N  34)                  1.0156         0.423891   
     36. B(H  36,N  34)                  1.0140         0.426363   
     37. B(H  37,C  33)                  1.0976         0.350209   
     38. B(C  38,C  33)                  1.5499         0.347231   
     39. B(C  38,C  17)                  1.5379         0.362880   
     40. B(N  39,C  38)                  1.4455         0.456325   
     41. B(C  40,N  39)                  1.3542         0.638224   
     42. B(O  41,C  40)                  1.2138         1.069214   
     43. B(C  42,C  40)                  1.5130         0.397662   
     44. B(H  43,C  42)                  1.0880         0.362788   
     45. B(H  44,C  42)                  1.0859         0.365536   
     46. B(H  45,C  42)                  1.0878         0.363070   
     47. B(H  46,N  39)                  1.0076         0.436586   
     48. B(H  47,C  38)                  1.0960         0.352291   
     49. B(H  48,C  18)                  1.0803         0.373205   
     50. B(H  49,C  17)                  1.1032         0.343053   
     51. A(C   1,O   0,C  17)          117.7100         0.398216   
     52. A(C   2,C   1,C   9)          111.1242         0.360161   
     53. A(C   2,C   1,H  16)          108.9029         0.321589   
     54. A(C   9,C   1,H  16)          108.6454         0.320533   
     55. A(O   0,C   1,C   9)          111.2065         0.375335   
     56. A(O   0,C   1,H  16)          109.0937         0.334605   
     57. A(O   0,C   1,C   2)          107.8226         0.376641   
     58. A(C   1,C   2,H   8)          108.3841         0.323254   
     59. A(C   1,C   2,C   3)          112.9059         0.363863   
     60. A(C   1,C   2,H   7)          108.1675         0.323502   
     61. A(C   3,C   2,H   8)          109.6717         0.325375   
     62. A(H   7,C   2,H   8)          108.5825         0.290666   
     63. A(C   3,C   2,H   7)          109.0332         0.325626   
     64. A(H   4,C   3,H   6)          108.3516         0.291519   
     65. A(C   2,C   3,H   6)          110.9226         0.325930   
     66. A(H   4,C   3,H   5)          108.2574         0.291711   
     67. A(C   2,C   3,H   5)          110.1904         0.326155   
     68. A(C   2,C   3,H   4)          110.1358         0.326070   
     69. A(H   5,C   3,H   6)          108.9158         0.291591   
     70. A(C   1,C   9,C  10)          112.7720         0.362313   
     71. A(C  10,C   9,H  15)          110.1138         0.325051   
     72. A(C   1,C   9,H  15)          108.2808         0.322129   
     73. A(C  10,C   9,H  14)          108.7533         0.325329   
     74. A(C   1,C   9,H  14)          109.4620         0.322404   
     75. A(H  14,C   9,H  15)          107.3131         0.290583   
     76. A(C   9,C  10,H  12)          110.0562         0.325836   
     77. A(C   9,C  10,H  13)          111.2421         0.325987   
     78. A(H  12,C  10,H  13)          108.3766         0.291816   
     79. A(H  11,C  10,H  13)          108.5195         0.291826   
     80. A(C   9,C  10,H  11)          109.6400         0.325848   
     81. A(H  11,C  10,H  12)          108.9554         0.291697   
     82. A(C  18,C  17,H  49)          107.9407         0.327700   
     83. A(O   0,C  17,C  38)          114.1632         0.380952   
     84. A(C  38,C  17,H  49)          107.8835         0.320225   
     85. A(O   0,C  17,H  49)          102.8700         0.338315   
     86. A(C  18,C  17,C  38)          109.4950         0.368521   
     87. A(O   0,C  17,C  18)          113.9498         0.390390   
     88. A(C  17,C  18,H  48)          116.7330         0.332295   
     89. A(C  19,C  18,H  48)          119.4302         0.368393   
     90. A(C  17,C  18,C  19)          123.8335         0.420371   
     91. A(C  20,C  19,C  30)          118.5332         0.381522   
     92. A(C  18,C  19,C  30)          123.5936         0.421064   
     93. A(C  18,C  19,C  20)          117.8670         0.424223   
     94. A(O  21,C  20,O  22)          123.8629         0.482848   
     95. A(C  19,C  20,O  22)          111.9759         0.412166   
     96. A(C  19,C  20,O  21)          124.1530         0.448893   
     97. A(C  20,O  22,C  23)          116.9809         0.417175   
     98. A(H  28,C  23,H  29)          110.0508         0.289676   
     99. A(C  24,C  23,H  29)          110.1431         0.324895   
    100. A(O  22,C  23,H  29)          108.9087         0.335891   
    101. A(C  24,C  23,H  28)          111.1876         0.325502   
    102. A(O  22,C  23,H  28)          104.9990         0.336526   
    103. A(O  22,C  23,C  24)          111.4201         0.379967   
    104. A(H  26,C  24,H  27)          109.0345         0.291749   
    105. A(H  25,C  24,H  27)          108.9246         0.291963   
    106. A(H  25,C  24,H  26)          109.1322         0.291931   
    107. A(C  23,C  24,H  26)          110.2562         0.326396   
    108. A(C  23,C  24,H  25)          109.5986         0.326647   
    109. A(C  23,C  24,H  27)          109.8695         0.326434   
    110. A(H  32,C  30,C  33)          109.6385         0.324101   
    111. A(H  31,C  30,C  33)          109.0660         0.323349   
    112. A(C  19,C  30,C  33)          112.0453         0.370748   
    113. A(H  31,C  30,H  32)          106.6665         0.290113   
    114. A(C  19,C  30,H  32)          110.1832         0.330790   
    115. A(C  19,C  30,H  31)          109.0862         0.330017   
    116. A(C  30,C  33,H  37)          109.3150         0.322671   
    117. A(C  30,C  33,N  34)          109.1068         0.373011   
    118. A(H  37,C  33,C  38)          108.5992         0.319001   
    119. A(N  34,C  33,C  38)          113.9348         0.368551   
    120. A(C  30,C  33,C  38)          108.5257         0.358652   
    121. A(N  34,C  33,H  37)          107.2847         0.331249   
    122. A(H  35,N  34,H  36)          107.0135         0.301549   
    123. A(C  33,N  34,H  36)          110.6432         0.339329   
    124. A(C  33,N  34,H  35)          110.0144         0.339000   
    125. A(C  33,C  38,H  47)          107.9844         0.319310   
    126. A(C  17,C  38,H  47)          110.4415         0.321620   
    127. A(C  33,C  38,N  39)          111.9175         0.369026   
    128. A(N  39,C  38,H  47)          106.8443         0.331986   
    129. A(C  17,C  38,N  39)          110.2390         0.371834   
    130. A(C  17,C  38,C  33)          109.3662         0.357080   
    131. A(C  40,N  39,H  46)          119.6877         0.360991   
    132. A(C  38,N  39,H  46)          117.1664         0.341103   
    133. A(C  38,N  39,C  40)          122.3924         0.407745   
    134. A(O  41,C  40,C  42)          123.7873         0.439128   
    135. A(N  39,C  40,C  42)          113.7439         0.400534   
    136. A(N  39,C  40,O  41)          122.4652         0.475493   
    137. A(H  44,C  42,H  45)          109.4675         0.291902   
    138. A(H  43,C  42,H  45)          108.8227         0.291556   
    139. A(C  40,C  42,H  45)          110.5568         0.328114   
    140. A(H  43,C  42,H  44)          109.1106         0.291866   
    141. A(C  40,C  42,H  44)          109.2641         0.328481   
    142. A(C  40,C  42,H  43)          109.5969         0.328073   
    143. D(C   2,C   1,O   0,C  17)   -135.6913         0.018575   
    144. D(H  16,C   1,O   0,C  17)    -17.5663         0.018575   
    145. D(C   9,C   1,O   0,C  17)    102.2492         0.018575   
    146. D(C   3,C   2,C   1,H  16)    -50.3104         0.010818   
    147. D(C   3,C   2,C   1,C   9)   -169.9524         0.010818   
    148. D(H   7,C   2,C   1,C   9)     69.2994         0.010818   
    149. D(C   3,C   2,C   1,O   0)     67.9373         0.010818   
    150. D(H   7,C   2,C   1,H  16)   -171.0586         0.010818   
    151. D(H   7,C   2,C   1,O   0)    -52.8109         0.010818   
    152. D(H   5,C   3,C   2,H   7)     58.3698         0.011662   
    153. D(H   5,C   3,C   2,C   1)    -61.8838         0.011662   
    154. D(H   5,C   3,C   2,H   8)    177.1415         0.011662   
    155. D(H   4,C   3,C   2,H   8)     57.7772         0.011662   
    156. D(H   4,C   3,C   2,H   7)    -60.9945         0.011662   
    157. D(H   4,C   3,C   2,C   1)    178.7519         0.011662   
    158. D(H  14,C   9,C   1,H  16)     55.1829         0.010419   
    159. D(C  10,C   9,C   1,H  16)    176.3906         0.010419   
    160. D(H  14,C   9,C   1,O   0)    -64.8986         0.010419   
    161. D(H  14,C   9,C   1,C   2)    174.9783         0.010419   
    162. D(C  10,C   9,C   1,C   2)    -63.8140         0.010419   
    163. D(C  10,C   9,C   1,O   0)     56.3092         0.010419   
    164. D(H  12,C  10,C   9,H  14)    -45.8705         0.011554   
    165. D(H  12,C  10,C   9,C   1)   -167.4803         0.011554   
    166. D(H  11,C  10,C   9,H  15)   -168.7147         0.011554   
    167. D(H  12,C  10,C   9,H  15)     71.4539         0.011554   
    168. D(H  11,C  10,C   9,H  14)     73.9609         0.011554   
    169. D(H  11,C  10,C   9,C   1)    -47.6489         0.011554   
    170. D(H  49,C  17,O   0,C   1)    170.7424         0.021869   
    171. D(C  38,C  17,O   0,C   1)    -72.6582         0.021869   
    172. D(C  18,C  17,O   0,C   1)     54.1766         0.021869   
    173. D(C  19,C  18,C  17,O   0)   -149.0387         0.012903   
    174. D(H  48,C  18,C  17,C  38)    160.8572         0.012903   
    175. D(H  48,C  18,C  17,O   0)     31.6307         0.012903   
    176. D(C  19,C  18,C  17,H  49)     97.3834         0.012903   
    177. D(C  19,C  18,C  17,C  38)    -19.8122         0.012903   
    178. D(C  30,C  19,C  18,H  48)    179.8130         0.042455   
    179. D(C  30,C  19,C  18,C  17)      0.4995         0.042455   
    180. D(C  20,C  19,C  18,H  48)     -1.1073         0.042455   
    181. D(C  20,C  19,C  18,C  17)    179.5792         0.042455   
    182. D(O  22,C  20,C  19,C  30)      0.0886         0.013182   
    183. D(O  22,C  20,C  19,C  18)   -179.0389         0.013182   
    184. D(O  21,C  20,C  19,C  30)    179.0730         0.013182   
    185. D(O  21,C  20,C  19,C  18)     -0.0545         0.013182   
    186. D(C  23,O  22,C  20,O  21)      1.4003         0.034324   
    187. D(C  23,O  22,C  20,C  19)   -179.6118         0.034324   
    188. D(H  29,C  23,O  22,C  20)    -38.7712         0.018795   
    189. D(H  28,C  23,O  22,C  20)   -156.6091         0.018795   
    190. D(C  24,C  23,O  22,C  20)     82.9239         0.018795   
    191. D(H  26,C  24,C  23,H  29)    177.3937         0.011778   
    192. D(H  26,C  24,C  23,H  28)    -60.3405         0.011778   
    193. D(H  26,C  24,C  23,O  22)     56.4176         0.011778   
    194. D(H  25,C  24,C  23,H  29)    -62.4580         0.011778   
    195. D(H  25,C  24,C  23,H  28)     59.8077         0.011778   
    196. D(H  25,C  24,C  23,O  22)    176.5658         0.011778   
    197. D(C  33,C  30,C  19,C  18)    -13.8883         0.013136   
    198. D(H  32,C  30,C  19,C  20)     44.6820         0.013136   
    199. D(H  32,C  30,C  19,C  18)   -136.2440         0.013136   
    200. D(H  31,C  30,C  19,C  20)    -72.0957         0.013136   
    201. D(H  31,C  30,C  19,C  18)    106.9783         0.013136   
    202. D(H  37,C  33,C  30,C  19)    -73.0186         0.011077   
    203. D(N  34,C  33,C  30,H  32)    -67.3933         0.011077   
    204. D(N  34,C  33,C  30,H  31)     49.0632         0.011077   
    205. D(N  34,C  33,C  30,C  19)    169.9414         0.011077   
    206. D(H  37,C  33,C  30,H  32)     49.6467         0.011077   
    207. D(H  37,C  33,C  30,H  31)    166.1032         0.011077   
    208. D(H  36,N  34,C  33,H  37)     57.0649         0.017502   
    209. D(H  36,N  34,C  33,C  30)    175.3850         0.017502   
    210. D(H  35,N  34,C  33,C  38)     54.8622         0.017502   
    211. D(H  35,N  34,C  33,H  37)    175.0991         0.017502   
    212. D(H  35,N  34,C  33,C  30)    -66.5809         0.017502   
    213. D(N  39,C  38,C  33,H  37)    -69.6770         0.009727   
    214. D(N  39,C  38,C  33,N  34)     49.8186         0.009727   
    215. D(N  39,C  38,C  33,C  30)    171.5835         0.009727   
    216. D(C  17,C  38,C  33,H  37)     52.7806         0.009727   
    217. D(C  17,C  38,C  33,N  34)    172.2763         0.009727   
    218. D(C  17,C  38,C  33,C  30)    -65.9588         0.009727   
    219. D(N  39,C  38,C  17,H  49)     57.7723         0.010553   
    220. D(N  39,C  38,C  17,C  18)    175.0040         0.010553   
    221. D(N  39,C  38,C  17,O   0)    -55.8864         0.010553   
    222. D(C  33,C  38,C  17,H  49)    -65.6832         0.010553   
    223. D(C  33,C  38,C  17,C  18)     51.5484         0.010553   
    224. D(C  33,C  38,C  17,O   0)   -179.3420         0.010553   
    225. D(H  46,N  39,C  38,C  33)     90.2737         0.017771   
    226. D(H  46,N  39,C  38,C  17)    -31.6850         0.017771   
    227. D(C  40,N  39,C  38,H  47)     18.2925         0.017771   
    228. D(C  40,N  39,C  38,C  33)    -99.7126         0.017771   
    229. D(C  40,N  39,C  38,C  17)    138.3287         0.017771   
    230. D(C  42,C  40,N  39,H  46)     -5.0737         0.033139   
    231. D(C  42,C  40,N  39,C  38)   -174.8441         0.033139   
    232. D(O  41,C  40,N  39,H  46)    175.6001         0.033139   
    233. D(O  41,C  40,N  39,C  38)      5.8297         0.033139   
    234. D(H  45,C  42,C  40,N  39)    -53.9307         0.011742   
    235. D(H  44,C  42,C  40,O  41)      4.8470         0.011742   
    236. D(H  44,C  42,C  40,N  39)   -174.4690         0.011742   
    237. D(H  43,C  42,C  40,O  41)   -114.6622         0.011742   
    238. D(H  43,C  42,C  40,N  39)     66.0219         0.011742   
    -----------------------------------------------------------------

Number of atoms                         .... 50
Number of degrees of freedom            .... 238


         *************************************************************
         *                GEOMETRY OPTIMIZATION CYCLE   1            *
         *************************************************************
---------------------------------
CARTESIAN COORDINATES (ANGSTROEM)
---------------------------------
  O      1.431877   -1.398704    0.861880
  C      1.462219   -2.043561   -0.412844
  C      1.491456   -3.558577   -0.172124
  C      0.194068   -4.089315    0.424557
  H      0.255678   -5.167248    0.555666
  H      0.015983   -3.637519    1.397261
  H     -0.650765   -3.870973   -0.225872
  H      2.312512   -3.778489    0.510038
  H      1.687894   -4.054541   -1.123989
  C      2.680200   -1.589189   -1.238048
  C      4.002460   -1.819384   -0.514431
  H      3.930132   -1.449456    0.505572
  H      4.804158   -1.291564   -1.025605
  H      4.254450   -2.875961   -0.481355
  H      2.587103   -0.527906   -1.468774
  H      2.672202   -2.129660   -2.186280
  H      0.547161   -1.788447   -0.966924
  C      0.536155   -0.326539    1.031737
  C     -0.884908   -0.660196    0.687971
  C     -1.757854    0.222396    0.201582
  C     -3.131753   -0.254734   -0.102031
  O     -3.506962   -1.390975    0.063007
  O     -3.900723    0.718866   -0.601392
  C     -5.248768    0.378278   -0.923847
  C     -6.145154    0.433320    0.304999
  H     -7.172100    0.229166    0.016273
  H     -6.093185    1.417187    0.765138
  H     -5.827068   -0.313580    1.028162
  H     -5.555649    1.114589   -1.669491
  H     -5.266573   -0.626455   -1.358889
  C     -1.421858    1.655546   -0.071530
  H     -1.352675    1.806985   -1.152883
  H     -2.222684    2.304082    0.284426
  C     -0.098251    2.069075    0.577029
  N      0.283217    3.375533    0.083952
  H      0.501992    3.323017   -0.906417
  H      1.118210    3.705671    0.555157
  H     -0.237805    2.157993    1.662065
  C      0.951519    0.962308    0.302695
  N      2.278303    1.363462    0.712925
  C      3.200304    1.825660   -0.164672
  O      2.942470    2.030881   -1.332835
  C      4.559367    2.072079    0.452878
  H      4.992431    1.126160    0.771285
  H      5.210520    2.530613   -0.285344
  H      4.473160    2.727144    1.316990
  H      2.553740    1.144648    1.657094
  H      0.990990    0.794132   -0.779573
  H     -1.200887   -1.678365    0.862531
  H      0.586962   -0.133428    2.116716

----------------------------
CARTESIAN COORDINATES (A.U.)
----------------------------
  NO LB      ZA    FRAG     MASS         X           Y           Z
   0 O     8.0000    0    15.999    2.705855   -2.643167    1.628717
   1 C     6.0000    0    12.011    2.763194   -3.861771   -0.780162
   2 C     6.0000    0    12.011    2.818443   -6.724736   -0.325267
   3 C     6.0000    0    12.011    0.366735   -7.727685    0.802297
   4 H     1.0000    0     1.008    0.483161   -9.764684    1.050057
   5 H     1.0000    0     1.008    0.030204   -6.873915    2.640441
   6 H     1.0000    0     1.008   -1.229768   -7.315079   -0.426836
   7 H     1.0000    0     1.008    4.370014   -7.140309    0.963833
   8 H     1.0000    0     1.008    3.189657   -7.661972   -2.124031
   9 C     6.0000    0    12.011    5.064844   -3.003132   -2.339571
  10 C     6.0000    0    12.011    7.563553   -3.438138   -0.972133
  11 H     1.0000    0     1.008    7.426873   -2.739075    0.955393
  12 H     1.0000    0     1.008    9.078543   -2.440702   -1.938112
  13 H     1.0000    0     1.008    8.039745   -5.434779   -0.909629
  14 H     1.0000    0     1.008    4.888916   -0.997598   -2.775580
  15 H     1.0000    0     1.008    5.049730   -4.024474   -4.131470
  16 H     1.0000    0     1.008    1.033985   -3.379675   -1.827221
  17 C     6.0000    0    12.011    1.013186   -0.617069    1.949701
  18 C     6.0000    0    12.011   -1.672234   -1.247590    1.300077
  19 C     6.0000    0    12.011   -3.321863    0.420268    0.380935
  20 C     6.0000    0    12.011   -5.918155   -0.481377   -0.192811
  21 O     8.0000    0    15.999   -6.627198   -2.628562    0.119066
  22 O     8.0000    0    15.999   -7.371298    1.358460   -1.136466
  23 C     6.0000    0    12.011   -9.918734    0.714842   -1.745818
  24 C     6.0000    0    12.011  -11.612658    0.818856    0.576365
  25 H     1.0000    0     1.008  -13.553305    0.433061    0.030751
  26 H     1.0000    0     1.008  -11.514451    2.678095    1.445901
  27 H     1.0000    0     1.008  -11.011563   -0.592580    1.942945
  28 H     1.0000    0     1.008  -10.498655    2.106268   -3.154881
  29 H     1.0000    0     1.008   -9.952381   -1.183828   -2.567928
  30 C     6.0000    0    12.011   -2.686922    3.128529   -0.135172
  31 H     1.0000    0     1.008   -2.556185    3.414707   -2.178633
  32 H     1.0000    0     1.008   -4.200264    4.354084    0.537487
  33 C     6.0000    0    12.011   -0.185667    3.909985    1.090427
  34 N     7.0000    0    14.007    0.535203    6.378833    0.158646
  35 H     1.0000    0     1.008    0.948628    6.279592   -1.712880
  36 H     1.0000    0     1.008    2.113111    7.002703    1.049095
  37 H     1.0000    0     1.008   -0.449386    4.078016    3.140848
  38 C     6.0000    0    12.011    1.798110    1.818499    0.572011
  39 N     7.0000    0    14.007    4.305369    2.576570    1.347233
  40 C     6.0000    0    12.011    6.047698    3.449997   -0.311185
  41 O     8.0000    0    15.999    5.560463    3.837809   -2.518693
  42 C     6.0000    0    12.011    8.615955    3.915662    0.855815
  43 H     1.0000    0     1.008    9.434327    2.128134    1.457518
  44 H     1.0000    0     1.008    9.846456    4.782165   -0.539222
  45 H     1.0000    0     1.008    8.453047    5.153555    2.488750
  46 H     1.0000    0     1.008    4.825869    2.163071    3.131454
  47 H     1.0000    0     1.008    1.872700    1.500692   -1.473179
  48 H     1.0000    0     1.008   -2.269347   -3.171650    1.629948
  49 H     1.0000    0     1.008    1.109198   -0.252142    4.000014

--------------------------------
INTERNAL COORDINATES (ANGSTROEM)
--------------------------------
 O      0   0   0     0.000000000000     0.00000000     0.00000000
 C      1   0   0     1.428874544420     0.00000000     0.00000000
 C      2   1   0     1.534299319134   107.82256183     0.00000000
 C      3   2   1     1.523458782677   112.90594209    67.93727091
 H      4   3   2     1.087623516876   110.13577221   178.75190245
 H      4   3   2     1.087192238930   110.19038695   298.11624195
 H      4   3   2     1.088335385568   110.92261775    58.80515175
 H      3   2   1     1.089880377438   108.16747501   307.18905663
 H      3   2   1     1.091153131059   108.38406380   189.64126164
 C      2   1   3     1.539770525892   111.20653829   237.94049867
 C     10   2   1     1.524789430741   112.77201250    56.30916068
 H     11  10   2     1.087420886725   109.64003586   312.35108801
 H     11  10   2     1.087479882084   110.05616884   192.51969582
 H     11  10   2     1.086714285853   111.24205245    72.38775634
 H     10   2   1     1.090056487059   109.46195079   295.10142900
 H     10   2   1     1.091474596799   108.28084075   178.41303523
 H      2   1   3     1.099735851408   109.09371751   118.12501201
 C      1   2   3     1.407375958629   117.71002203   224.30869275
 C     18   1   2     1.499640659142   113.94977767    54.17663855
 C     19  18   1     1.333258270797   123.83346324   210.96125259
 C     20  19  18     1.485743030810   117.86695274   179.57921218
 O     21  20  19     1.207916779084   124.15296321   359.94554968
 O     21  20  19     1.337375500465   111.97586573   180.96110429
 C     23  21  20     1.427306111141   116.98093419   180.38821539
 C     24  23  21     1.522038098873   111.42014056    82.92391572
 H     25  24  23     1.086121377029   109.59860620   176.56582672
 H     25  24  23     1.087392730379   110.25618308    56.41761852
 H     25  24  23     1.087199631046   109.86947762   296.21815953
 H     24  23  21     1.091931688134   104.99895278   203.39088392
 H     24  23  21     1.095019159969   108.90867828   321.22877775
 C     20  19  18     1.497131389844   123.59361588     0.49947740
 H     31  20  19     1.094095228533   109.08616242   106.97825531
 H     31  20  19     1.090241211652   110.18322939   223.75601660
 C     31  20  19     1.530872463768   112.04528232   346.11169286
 N     34  31  20     1.447575652300   109.10684103   169.94143949
 H     35  34  31     1.015603853395   110.01444956   293.41913061
 H     35  34  31     1.014020986415   110.64319252   175.38500078
 H     34  31  20     1.097581364132   109.31503914   286.98141016
 C     18   1   2     1.537906394857   114.16316309   287.34180483
 N     39  18   1     1.445534146007   110.23895771   304.11356180
 C     40  39  18     1.354211700396   122.39235429   138.32871216
 O     41  40  39     1.213754021606   122.46517744     5.82973333
 C     41  40  39     1.512991263584   113.74388610   185.15592551
 H     43  41  40     1.087975275577   109.59686818    66.02187084
 H     43  41  40     1.085921442775   109.26411553   185.53102290
 H     43  41  40     1.087764381460   110.55682030   306.06932105
 H     40  39  18     1.007571440792   117.16640142   328.31499850
 H     39  18   1     1.095967677781   110.44149048    61.95444662
 H     19  18   1     1.080269426822   116.73300355    31.63072225
 H     18   1   2     1.103201087700   102.86997586   170.74236146

---------------------------
INTERNAL COORDINATES (A.U.)
---------------------------
 O      0   0   0     0.000000000000     0.00000000     0.00000000
 C      1   0   0     2.700181568686     0.00000000     0.00000000
 C      2   1   0     2.899405520625   107.82256183     0.00000000
 C      3   2   1     2.878919875577   112.90594209    67.93727091
 H      4   3   2     2.055310583708   110.13577221   178.75190245
 H      4   3   2     2.054495586502   110.19038695   298.11624195
 H      4   3   2     2.056655820579   110.92261775    58.80515175
 H      3   2   1     2.059575432092   108.16747501   307.18905663
 H      3   2   1     2.061980587871   108.38406380   189.64126164
 C      2   1   3     2.909744603020   111.20653829   237.94049867
 C     10   2   1     2.881434435998   112.77201250    56.30916068
 H     11  10   2     2.054927668215   109.64003586   312.35108801
 H     11  10   2     2.055039153287   110.05616884   192.51969582
 H     11  10   2     2.053592386082   111.24205245    72.38775634
 H     10   2   1     2.059908231045   109.46195079   295.10142900
 H     10   2   1     2.062588070082   108.28084075   178.41303523
 H      2   1   3     2.078199578815   109.09371751   118.12501201
 C      1   2   3     2.659555129273   117.71002203   224.30869275
 C     18   1   2     2.833910145072   113.94977767    54.17663855
 C     19  18   1     2.519492997592   123.83346324   210.96125259
 C     20  19  18     2.807647433612   117.86695274   179.57921218
 O     21  20  19     2.282631905036   124.15296321   359.94554968
 O     21  20  19     2.527273434095   111.97586573   180.96110429
 C     23  21  20     2.697217659330   116.98093419   180.38821539
 C     24  23  21     2.876235172263   111.42014056    82.92391572
 H     25  24  23     2.052471950782   109.59860620   176.56582672
 H     25  24  23     2.054874460433   110.25618308    56.41761852
 H     25  24  23     2.054509555577   109.86947762   296.21815953
 H     24  23  21     2.063451847523   104.99895278   203.39088392
 H     24  23  21     2.069286323739   108.90867828   321.22877775
 C     20  19  18     2.829168313302   123.59361588     0.49947740
 H     31  20  19     2.067540346356   109.08616242   106.97825531
 H     31  20  19     2.060257309937   110.18322939   223.75601660
 C     31  20  19     2.892929702483   112.04528232   346.11169286
 N     34  31  20     2.735521540980   109.10684103   169.94143949
 H     35  34  31     1.919213143472   110.01444956   293.41913061
 H     35  34  31     1.916221958374   110.64319252   175.38500078
 H     34  31  20     2.074128187905   109.31503914   286.98141016
 C     18   1   2     2.906221905885   114.16316309   287.34180483
 N     39  18   1     2.731663653184   110.23895771   304.11356180
 C     40  39  18     2.559089241100   122.39235429   138.32871216
 O     41  40  39     2.293662694782   122.46517744     5.82973333
 C     41  40  39     2.859139131189   113.74388610   185.15592551
 H     43  41  40     2.055975311318   109.59686818    66.02187084
 H     43  41  40     2.052094129798   109.26411553   185.53102290
 H     43  41  40     2.055576779193   110.55682030   306.06932105
 H     40  39  18     1.904034083457   117.16640142   328.31499850
 H     39  18   1     2.071078762636   110.44149048    61.95444662
 H     19  18   1     2.041413367542   116.73300355    31.63072225
 H     18   1   2     2.084747926397   102.86997586   170.74236146

---------------------
BASIS SET INFORMATION
---------------------
There are 4 groups of distinct atoms

 Group   1 Type O   : 11s6p2d contracted to 5s3p2d pattern {62111/411/11}
 Group   2 Type C   : 11s6p1d contracted to 5s3p1d pattern {62111/411/1}
 Group   3 Type H   : 5s contracted to 3s pattern {311}
 Group   4 Type N   : 11s6p1d contracted to 5s3p1d pattern {62111/411/1}

Atom   0O    basis set group =>   1
Atom   1C    basis set group =>   2
Atom   2C    basis set group =>   2
Atom   3C    basis set group =>   2
Atom   4H    basis set group =>   3
Atom   5H    basis set group =>   3
Atom   6H    basis set group =>   3
Atom   7H    basis set group =>   3
Atom   8H    basis set group =>   3
Atom   9C    basis set group =>   2
Atom  10C    basis set group =>   2
Atom  11H    basis set group =>   3
Atom  12H    basis set group =>   3
Atom  13H    basis set group =>   3
Atom  14H    basis set group =>   3
Atom  15H    basis set group =>   3
Atom  16H    basis set group =>   3
Atom  17C    basis set group =>   2
Atom  18C    basis set group =>   2
Atom  19C    basis set group =>   2
Atom  20C    basis set group =>   2
Atom  21O    basis set group =>   1
Atom  22O    basis set group =>   1
Atom  23C    basis set group =>   2
Atom  24C    basis set group =>   2
Atom  25H    basis set group =>   3
Atom  26H    basis set group =>   3
Atom  27H    basis set group =>   3
Atom  28H    basis set group =>   3
Atom  29H    basis set group =>   3
Atom  30C    basis set group =>   2
Atom  31H    basis set group =>   3
Atom  32H    basis set group =>   3
Atom  33C    basis set group =>   2
Atom  34N    basis set group =>   4
Atom  35H    basis set group =>   3
Atom  36H    basis set group =>   3
Atom  37H    basis set group =>   3
Atom  38C    basis set group =>   2
Atom  39N    basis set group =>   4
Atom  40C    basis set group =>   2
Atom  41O    basis set group =>   1
Atom  42C    basis set group =>   2
Atom  43H    basis set group =>   3
Atom  44H    basis set group =>   3
Atom  45H    basis set group =>   3
Atom  46H    basis set group =>   3
Atom  47H    basis set group =>   3
Atom  48H    basis set group =>   3
Atom  49H    basis set group =>   3
---------------------------------
AUXILIARY/J BASIS SET INFORMATION
---------------------------------
There are 4 groups of distinct atoms

 Group   1 Type O   : 8s3p3d contracted to 6s3p3d pattern {311111/111/111}
 Group   2 Type C   : 8s3p3d contracted to 6s3p3d pattern {311111/111/111}
 Group   3 Type H   : 5s2p contracted to 3s1p pattern {311/2}
 Group   4 Type N   : 8s3p3d contracted to 6s3p3d pattern {311111/111/111}

Atom   0O    basis set group =>   1
Atom   1C    basis set group =>   2
Atom   2C    basis set group =>   2
Atom   3C    basis set group =>   2
Atom   4H    basis set group =>   3
Atom   5H    basis set group =>   3
Atom   6H    basis set group =>   3
Atom   7H    basis set group =>   3
Atom   8H    basis set group =>   3
Atom   9C    basis set group =>   2
Atom  10C    basis set group =>   2
Atom  11H    basis set group =>   3
Atom  12H    basis set group =>   3
Atom  13H    basis set group =>   3
Atom  14H    basis set group =>   3
Atom  15H    basis set group =>   3
Atom  16H    basis set group =>   3
Atom  17C    basis set group =>   2
Atom  18C    basis set group =>   2
Atom  19C    basis set group =>   2
Atom  20C    basis set group =>   2
Atom  21O    basis set group =>   1
Atom  22O    basis set group =>   1
Atom  23C    basis set group =>   2
Atom  24C    basis set group =>   2
Atom  25H    basis set group =>   3
Atom  26H    basis set group =>   3
Atom  27H    basis set group =>   3
Atom  28H    basis set group =>   3
Atom  29H    basis set group =>   3
Atom  30C    basis set group =>   2
Atom  31H    basis set group =>   3
Atom  32H    basis set group =>   3
Atom  33C    basis set group =>   2
Atom  34N    basis set group =>   4
Atom  35H    basis set group =>   3
Atom  36H    basis set group =>   3
Atom  37H    basis set group =>   3
Atom  38C    basis set group =>   2
Atom  39N    basis set group =>   4
Atom  40C    basis set group =>   2
Atom  41O    basis set group =>   1
Atom  42C    basis set group =>   2
Atom  43H    basis set group =>   3
Atom  44H    basis set group =>   3
Atom  45H    basis set group =>   3
Atom  46H    basis set group =>   3
Atom  47H    basis set group =>   3
Atom  48H    basis set group =>   3
Atom  49H    basis set group =>   3


           ************************************************************
           *        Program running with 16 parallel MPI-processes    *
           *              working on a common directory               *
           ************************************************************
------------------------------------------------------------------------------
                             ORCA STARTUP CALCULATIONS
                           -- RI-GTO INTEGRALS CHOSEN --
------------------------------------------------------------------------------
------------------------------------------------------------------------------
                   ___                                                        
                  /   \      - P O W E R E D   B Y -                         
                 /     \                                                     
                 |  |  |   _    _      __       _____    __    __             
                 |  |  |  | |  | |    /  \     |  _  \  |  |  /  |          
                  \  \/   | |  | |   /    \    | | | |  |  | /  /          
                 / \  \   | |__| |  /  /\  \   | |_| |  |  |/  /          
                |  |  |   |  __  | /  /__\  \  |    /   |      \           
                |  |  |   | |  | | |   __   |  |    \   |  |\   \          
                \     /   | |  | | |  |  |  |  | |\  \  |  | \   \       
                 \___/    |_|  |_| |__|  |__|  |_| \__\ |__|  \__/        
                                                                              
                      - O R C A' S   B I G   F R I E N D -                    
                                      &                                       
                       - I N T E G R A L  F E E D E R -                       
                                                                              
 v1 FN, 2020, v2 2021, v3 2022-2024                                           
------------------------------------------------------------------------------


----------------------
SHARK INTEGRAL PACKAGE
----------------------

Number of atoms                             ...     50
Number of basis functions                   ...    522
Number of shells                            ...    286
Maximum angular momentum                    ...      2
Integral batch strategy                     ... SHARK/LIBINT Hybrid
RI-J (if used) integral strategy            ... SPLIT-RIJ (Revised 2003 algorithm where possible)
Printlevel                                  ...      1
Contraction scheme used                     ... SEGMENTED contraction
Prescreening option                         ... SCHWARTZ
   Thresh                                   ... 2.500e-11
   Tcut                                     ... 2.500e-12
   Tpresel                                  ... 2.500e-12 
Coulomb Range Separation                    ... NOT USED
Exchange Range Separation                   ... NOT USED
Multipole approximations                    ... NOT USED
Finite Nucleus Model                        ... NOT USED
CABS basis                                  ... NOT available
Auxiliary Coulomb fitting basis             ... AVAILABLE
   # of basis functions in Aux-J            ...    828
   # of shells in Aux-J                     ...    376
   Maximum angular momentum in Aux-J        ...      2
Auxiliary J/K fitting basis                 ... NOT available
Auxiliary Correlation fitting basis         ... NOT available
Auxiliary 'external' fitting basis          ... NOT available

Checking pre-screening integrals            ... done (  0.0 sec) Dimension = 286
Check shell pair data                       ... done (  0.0 sec)
Shell pair information
Shell pair cut-off parameter TPreSel        ...   2.5e-12
Total number of shell pairs                 ...     41041
Shell pairs after pre-screening             ...     29670
Total number of primitive shell pairs       ...    146638
Primitive shell pairs kept                  ...     66799
          la=0 lb=0:  12806 shell pairs
          la=1 lb=0:   9931 shell pairs
          la=1 lb=1:   1912 shell pairs
          la=2 lb=0:   3409 shell pairs
          la=2 lb=1:   1365 shell pairs
          la=2 lb=2:    247 shell pairs

Calculating one electron integrals          ... done (  0.0 sec)
Calculating RI/J V-Matrix + Cholesky decomp.... done (  0.0 sec)
Calculating Nuclear repulsion               ... done (  0.0 sec) ENN=   2000.684098206573 Eh

Diagonalization of the overlap matrix:
Smallest eigenvalue                        ... 1.909e-05
Time for diagonalization                   ...    0.026 sec
Threshold for overlap eigenvalues          ... 1.000e-07
Number of eigenvalues below threshold      ... 0
Time for construction of square roots      ...    0.015 sec
Total time needed                          ...    0.044 sec

-------------------
DFT GRID GENERATION
-------------------

General Integration Accuracy     IntAcc      ... 4.959
Radial Grid Type                 RadialGrid  ... OptM3 with GC (2021)
Angular Grid (max. ang.)         AngularGrid ... 6 (Lebedev-590)
Angular grid pruning method      GridPruning ... 4 (adaptive)
Weight generation scheme         WeightScheme... mBecke (2022)
Basis function cutoff            BFCut       ... 1.0000e-11
Integration weight cutoff        WCut        ... 1.0000e-14
Partially contracted basis set               ... off
Rotationally invariant grid construction     ... off
Angular grids for H and He will be reduced by one unit
Diffuse basis detected: some atoms will have their outermost
                        angular grid increased by 1.

Total number of grid points                  ...   549457
Total number of batches                      ...     8609
Average number of points per batch           ...       63
Average number of grid points per atom       ...    10989
Initializing property integral containers    ... done (  0.0 sec)

SHARK setup successfully completed in   4.2 seconds

Maximum memory used throughout the entire STARTUP-calculation: 133.1 MB


           ************************************************************
           *        Program running with 16 parallel MPI-processes    *
           *              working on a common directory               *
           ************************************************************
-------------------------------------------------------------------------------
                                 ORCA GUESS
                   Start orbitals & Density for SCF / CASSCF
-------------------------------------------------------------------------------

------------
SCF SETTINGS
------------
Hamiltonian:
 Density Functional     Method          .... DFT(GTOs)
 Exchange Functional    Exchange        .... B973C
 Correlation Functional Correlation     .... B973C
 Gradients option       PostSCFGGA      .... off
 RI-approximation to the Coulomb term is turned on
   Number of AuxJ basis functions       .... 828


General Settings:
 Integral files         IntName         .... m1_00_Tamiflu-GitHubGFN2-B97-3C-TZ
 Hartree-Fock type      HFTyp           .... RHF
 Total Charge           Charge          ....    0
 Multiplicity           Mult            ....    1
 Number of Electrons    NEL             ....  170
 Basis Dimension        Dim             ....  522
 Nuclear Repulsion      ENuc            ....   2000.6840982066 Eh

Convergence Acceleration:
 AO-DIIS                CNVDIIS         .... on
   Start iteration      DIISMaxIt       ....    12
   Startup error        DIISStart       ....  0.200000
   # of expansion vecs  DIISMaxEq       ....     5
   Bias factor          DIISBfac        ....   1.050
   Max. coefficient     DIISMaxC        ....  10.000
 MO-DIIS                CNVKDIIS        .... off
 Trust-Rad. Augm. Hess. CNVTRAH         .... off
 SOSCF                  CNVSOSCF        .... on
   Start iteration      SOSCFMaxIt      ....   150
   Startup grad/error   SOSCFStart      ....  0.003300
   Hessian update       SOSCFHessUp     .... L-BFGS
 Level Shifting         CNVShift        .... on
   Level shift para.    LevelShift      ....    0.2500
   Turn off err/grad.   ShiftErr        ....    0.0010
 Zerner damping         CNVZerner       .... off
 Static damping         CNVDamp         .... on
   Fraction old density DampFac         ....    0.7000
   Max. Damping (<1)    DampMax         ....    0.9800
   Min. Damping (>=0)   DampMin         ....    0.0000
   Turn off err/grad.   DampErr         ....    0.1000

SCF Procedure:
 Maximum # iterations   MaxIter         ....   800
 SCF integral mode      SCFMode         .... Direct
   Integral package                     .... SHARK and LIBINT hybrid scheme
 Reset frequency        DirectResetFreq ....    20
 Integral Threshold     Thresh          ....  2.500e-11 Eh
 Primitive CutOff       TCut            ....  2.500e-12 Eh

Convergence Tolerance:
 Convergence Check Mode ConvCheckMode   .... Total+1el-Energy
 Convergence forced     ConvForced      .... 0
 Energy Change          TolE            ....  1.000e-08 Eh
 1-El. energy change                    ....  1.000e-05 Eh
 Orbital Gradient       TolG            ....  1.000e-05
 Orbital Rotation angle TolX            ....  1.000e-05
 DIIS Error             TolErr          ....  5.000e-07

--------------------------------
INITIAL GUESS: MINIMAL BASIS EHT
--------------------------------
The minimal basis has 138 functions
EHT matrix was diagonalized
Basis set overlap was calculated now projecting the orbitals
Using GuessMode=FMatrix for the initial guess
C*T matrix was formed
Effective Fockian was calculated
Effective Fockian was diagonalized
Initial density was built
                      ------------------
                      INITIAL GUESS DONE
                      ------------------
             **** ENERGY FILE WAS UPDATED (m1_00_Tamiflu-GitHubGFN2-B97-3C-TZ.en.tmp) ****
Finished Guess after   0.3 sec
Maximum memory used throughout the entire GUESS-calculation: 49.3 MB


           ************************************************************
           *        Program running with 16 parallel MPI-processes    *
           *              working on a common directory               *
           ************************************************************

-------------------------------------------------------------------------------------------
                                      ORCA LEAN-SCF
                              memory conserving SCF solver
-------------------------------------------------------------------------------------------

----------------------------------------D-I-I-S--------------------------------------------
Iteration    Energy (Eh)           Delta-E    RMSDP     MaxDP     DIISErr   Damp  Time(sec)
-------------------------------------------------------------------------------------------
               ***  Starting incremental Fock matrix formation  ***
    1    -1033.0743966264251412     0.00e+00  5.28e-03  3.07e-01  4.80e-01  0.700   1.1
Warning: op=0 Small HOMO/LUMO gap (   0.063) - skipping pre-diagonalization
         Will do a full diagonalization
    2    -1034.2317569755784916    -1.16e+00  4.44e-03  4.28e-01  3.24e-01  0.700   1.2
    3    -1034.8351712469695940    -6.03e-01  2.62e-03  2.07e-01  2.25e-01  0.700   1.1
                               ***Turning on AO-DIIS***
    4    -1035.2583690516605657    -4.23e-01  1.87e-03  1.53e-01  1.58e-01  0.700   1.2
    5    -1035.5542340434269590    -2.96e-01  1.30e-03  9.32e-02  1.10e-01  0.700   1.2
    6    -1035.7636418696408782    -2.09e-01  8.76e-04  4.62e-02  7.71e-02  0.700   1.2
    7    -1035.9124741443849871    -1.49e-01  2.10e-03  1.05e-01  5.42e-02  0.000   1.1
    8    -1036.2558805706378280    -3.43e-01  4.17e-04  2.94e-02  2.60e-02  0.000   1.2
    9    -1036.2588255823554846    -2.95e-03  1.19e-04  1.04e-02  1.00e-02  0.000   1.1
   10    -1036.2589582016537406    -1.33e-04  4.61e-05  3.97e-03  5.79e-03  0.000   1.1
                              *** Initializing SOSCF ***
---------------------------------------S-O-S-C-F--------------------------------------
Iteration    Energy (Eh)           Delta-E    RMSDP     MaxDP     MaxGrad    Time(sec)
--------------------------------------------------------------------------------------
   11    -1036.2590654735470252    -1.07e-04  1.76e-05  1.71e-03  7.05e-04     1.2
               *** Restarting incremental Fock matrix formation ***
   12    -1036.2590694776215514    -4.00e-06  3.16e-05  2.90e-03  1.36e-04     1.3
   13    -1036.2590666558419343     2.82e-06  1.47e-05  1.28e-03  3.52e-04     1.0
   14    -1036.2590700470493630    -3.39e-06  9.91e-06  9.59e-04  4.10e-05     1.0
   15    -1036.2590696871727687     3.60e-07  5.39e-06  3.58e-04  8.34e-05     1.0
   16    -1036.2590701120141148    -4.25e-07  4.85e-06  4.70e-04  5.72e-06     1.0
   17    -1036.2590701134629398    -1.45e-09  2.46e-06  3.41e-04  1.44e-05     1.0
                 **** Energy Check signals convergence ****

               *****************************************************
               *                     SUCCESS                       *
               *           SCF CONVERGED AFTER  17 CYCLES          *
               *****************************************************

             **** ENERGY FILE WAS UPDATED (m1_00_Tamiflu-GitHubGFN2-B97-3C-TZ.en.tmp) ****

----------------
TOTAL SCF ENERGY
----------------

Total Energy       :      -1036.25907011346294 Eh          -28198.04286 eV

Components:
Nuclear Repulsion  :       2000.68409820657348 Eh           54441.38206 eV
Electronic Energy  :      -3036.94316832003642 Eh          -82639.42492 eV
One Electron Energy:      -5388.43923979393730 Eh         -146626.88608 eV
Two Electron Energy:       2351.49607147390088 Eh           63987.46116 eV

Virial components:
Potential Energy   :      -2068.79363680654251 Eh          -56294.73683 eV
Kinetic Energy     :       1032.53456669307957 Eh           28096.69397 eV
Virial Ratio       :          2.00360714647289

DFT components:
N(Alpha)           :       84.999930539157 electrons
N(Beta)            :       84.999930539157 electrons
N(Total)           :      169.999861078315 electrons
E(XC)              :     -144.848860085104 Eh       

---------------
SCF CONVERGENCE
---------------

  Last Energy change         ...    1.4488e-09  Tolerance :   1.0000e-08
  Last MAX-Density change    ...    3.4074e-04  Tolerance :   1.0000e-07
  Last RMS-Density change    ...    2.4609e-06  Tolerance :   5.0000e-09
  Last DIIS Error            ...    7.0464e-04  Tolerance :   5.0000e-07
  Last Orbital Gradient      ...    1.4391e-05  Tolerance :   1.0000e-05
  Last Orbital Rotation      ...    2.8045e-05  Tolerance :   1.0000e-05


----------------
ORBITAL ENERGIES
----------------

  NO   OCC          E(Eh)            E(eV) 
   0   2.0000     -18.792206      -511.3619 
   1   2.0000     -18.750648      -510.2311 
   2   2.0000     -18.723822      -509.5011 
   3   2.0000     -18.709393      -509.1085 
   4   2.0000     -14.017241      -381.4285 
   5   2.0000     -13.965816      -380.0292 
   6   2.0000     -10.010570      -272.4015 
   7   2.0000      -9.986953      -271.7588 
   8   2.0000      -9.960800      -271.0472 
   9   2.0000      -9.950011      -270.7536 
  10   2.0000      -9.938220      -270.4327 
  11   2.0000      -9.931608      -270.2528 
  12   2.0000      -9.927475      -270.1403 
  13   2.0000      -9.913024      -269.7471 
  14   2.0000      -9.905985      -269.5556 
  15   2.0000      -9.898023      -269.3389 
  16   2.0000      -9.897491      -269.3244 
  17   2.0000      -9.887400      -269.0498 
  18   2.0000      -9.882453      -268.9152 
  19   2.0000      -9.879113      -268.8243 
  20   2.0000      -9.872131      -268.6344 
  21   2.0000      -9.871936      -268.6290 
  22   2.0000      -1.027744       -27.9663 
  23   2.0000      -0.965855       -26.2823 
  24   2.0000      -0.960102       -26.1257 
  25   2.0000      -0.938409       -25.5354 
  26   2.0000      -0.864195       -23.5159 
  27   2.0000      -0.818831       -22.2815 
  28   2.0000      -0.770493       -20.9662 
  29   2.0000      -0.735256       -20.0073 
  30   2.0000      -0.713883       -19.4257 
  31   2.0000      -0.698212       -18.9993 
  32   2.0000      -0.682805       -18.5801 
  33   2.0000      -0.671328       -18.2678 
  34   2.0000      -0.663186       -18.0462 
  35   2.0000      -0.618721       -16.8363 
  36   2.0000      -0.614393       -16.7185 
  37   2.0000      -0.578614       -15.7449 
  38   2.0000      -0.561344       -15.2749 
  39   2.0000      -0.554416       -15.0864 
  40   2.0000      -0.545377       -14.8404 
  41   2.0000      -0.527743       -14.3606 
  42   2.0000      -0.505321       -13.7505 
  43   2.0000      -0.488289       -13.2870 
  44   2.0000      -0.481477       -13.1016 
  45   2.0000      -0.464574       -12.6417 
  46   2.0000      -0.451282       -12.2800 
  47   2.0000      -0.439989       -11.9727 
  48   2.0000      -0.436125       -11.8676 
  49   2.0000      -0.429900       -11.6982 
  50   2.0000      -0.425222       -11.5709 
  51   2.0000      -0.415118       -11.2959 
  52   2.0000      -0.408882       -11.1262 
  53   2.0000      -0.404482       -11.0065 
  54   2.0000      -0.398617       -10.8469 
  55   2.0000      -0.393898       -10.7185 
  56   2.0000      -0.393677       -10.7125 
  57   2.0000      -0.385844       -10.4993 
  58   2.0000      -0.381773       -10.3886 
  59   2.0000      -0.371595       -10.1116 
  60   2.0000      -0.367626       -10.0036 
  61   2.0000      -0.365113        -9.9352 
  62   2.0000      -0.359488        -9.7822 
  63   2.0000      -0.354854        -9.6561 
  64   2.0000      -0.344902        -9.3853 
  65   2.0000      -0.341194        -9.2844 
  66   2.0000      -0.337187        -9.1753 
  67   2.0000      -0.330085        -8.9821 
  68   2.0000      -0.324577        -8.8322 
  69   2.0000      -0.321222        -8.7409 
  70   2.0000      -0.316346        -8.6082 
  71   2.0000      -0.313115        -8.5203 
  72   2.0000      -0.311789        -8.4842 
  73   2.0000      -0.302253        -8.2247 
  74   2.0000      -0.299763        -8.1570 
  75   2.0000      -0.292905        -7.9703 
  76   2.0000      -0.281762        -7.6671 
  77   2.0000      -0.270365        -7.3570 
  78   2.0000      -0.265079        -7.2132 
  79   2.0000      -0.239372        -6.5136 
  80   2.0000      -0.232692        -6.3319 
  81   2.0000      -0.229089        -6.2338 
  82   2.0000      -0.222421        -6.0524 
  83   2.0000      -0.214270        -5.8306 
  84   2.0000      -0.192149        -5.2286 
  85   0.0000      -0.076465        -2.0807 
  86   0.0000      -0.013287        -0.3616 
  87   0.0000       0.005404         0.1470 
  88   0.0000       0.024102         0.6559 
  89   0.0000       0.030411         0.8275 
  90   0.0000       0.036197         0.9850 
  91   0.0000       0.037994         1.0339 
  92   0.0000       0.043260         1.1772 
  93   0.0000       0.053621         1.4591 
  94   0.0000       0.057618         1.5679 
  95   0.0000       0.060862         1.6561 
*Only the first 10 virtual orbitals were printed.

                    ********************************
                    * MULLIKEN POPULATION ANALYSIS *
                    ********************************

-----------------------
MULLIKEN ATOMIC CHARGES
-----------------------
   0 O :   -0.204154
   1 C :   -0.012590
   2 C :   -0.309040
   3 C :   -0.541358
   4 H :    0.178372
   5 H :    0.175996
   6 H :    0.169645
   7 H :    0.171212
   8 H :    0.155943
   9 C :   -0.204074
  10 C :   -0.591820
  11 H :    0.165762
  12 H :    0.176084
  13 H :    0.177870
  14 H :    0.181818
  15 H :    0.150116
  16 H :    0.170455
  17 C :   -0.232801
  18 C :   -0.345687
  19 C :    0.172078
  20 C :    0.315181
  21 O :   -0.408493
  22 O :   -0.183309
  23 C :   -0.190233
  24 C :   -0.514019
  25 H :    0.165517
  26 H :    0.168446
  27 H :    0.196191
  28 H :    0.179703
  29 H :    0.176630
  30 C :   -0.278524
  31 H :    0.173194
  32 H :    0.204785
  33 C :   -0.330400
  34 N :   -0.503067
  35 H :    0.314551
  36 H :    0.304593
  37 H :    0.170572
  38 C :   -0.084500
  39 N :   -0.287059
  40 C :    0.320408
  41 O :   -0.420896
  42 C :   -0.608226
  43 H :    0.187039
  44 H :    0.201919
  45 H :    0.171392
  46 H :    0.344246
  47 H :    0.223750
  48 H :    0.214721
  49 H :    0.172060
Sum of atomic charges:   -0.0000000

--------------------------------
MULLIKEN REDUCED ORBITAL CHARGES
--------------------------------
  0 O s       :     3.730368  s :     3.730368
      pz      :     1.412077  p :     4.473136
      px      :     1.627701
      py      :     1.433357
      dz2     :     0.011340  d :     0.000650
      dxz     :    -0.005631
      dyz     :    -0.002489
      dx2y2   :    -0.005368
      dxy     :     0.002798

  1 C s       :     3.170548  s :     3.170548
      pz      :     0.796271  p :     2.772598
      px      :     1.049569
      py      :     0.926759
      dz2     :     0.014502  d :     0.069443
      dxz     :     0.017556
      dyz     :     0.015028
      dx2y2   :     0.014729
      dxy     :     0.007628

  2 C s       :     3.192812  s :     3.192812
      pz      :     1.078435  p :     3.072476
      px      :     1.039794
      py      :     0.954246
      dz2     :     0.007201  d :     0.043752
      dxz     :     0.010625
      dyz     :     0.007631
      dx2y2   :     0.011571
      dxy     :     0.006724

  3 C s       :     3.269162  s :     3.269162
      pz      :     1.098691  p :     3.234874
      px      :     0.995980
      py      :     1.140203
      dz2     :     0.007521  d :     0.037322
      dxz     :     0.009640
      dyz     :     0.004743
      dx2y2   :     0.011566
      dxy     :     0.003852

  4 H s       :     0.821628  s :     0.821628

  5 H s       :     0.824004  s :     0.824004

  6 H s       :     0.830355  s :     0.830355

  7 H s       :     0.828788  s :     0.828788

  8 H s       :     0.844057  s :     0.844057

  9 C s       :     3.129331  s :     3.129331
      pz      :     0.986982  p :     3.031299
      px      :     0.921739
      py      :     1.122578
      dz2     :     0.008221  d :     0.043444
      dxz     :     0.008933
      dyz     :     0.007922
      dx2y2   :     0.013459
      dxy     :     0.004910

 10 C s       :     3.295067  s :     3.295067
      pz      :     1.085928  p :     3.259584
      px      :     1.034376
      py      :     1.139280
      dz2     :     0.009627  d :     0.037170
      dxz     :     0.007164
      dyz     :     0.004325
      dx2y2   :     0.009122
      dxy     :     0.006931

 11 H s       :     0.834238  s :     0.834238

 12 H s       :     0.823916  s :     0.823916

 13 H s       :     0.822130  s :     0.822130

 14 H s       :     0.818182  s :     0.818182

 15 H s       :     0.849884  s :     0.849884

 16 H s       :     0.829545  s :     0.829545

 17 C s       :     3.266239  s :     3.266239
      pz      :     1.067231  p :     2.891258
      px      :     0.928606
      py      :     0.895422
      dz2     :     0.017409  d :     0.075304
      dxz     :     0.007552
      dyz     :     0.010630
      dx2y2   :     0.022685
      dxy     :     0.017028

 18 C s       :     3.339661  s :     3.339661
      pz      :     0.968387  p :     2.966350
      px      :     0.995015
      py      :     1.002947
      dz2     :     0.005341  d :     0.039676
      dxz     :     0.006249
      dyz     :     0.003731
      dx2y2   :     0.013643
      dxy     :     0.010712

 19 C s       :     3.193288  s :     3.193288
      pz      :     1.000452  p :     2.588285
      px      :     0.796281
      py      :     0.791552
      dz2     :     0.004980  d :     0.046349
      dxz     :     0.004854
      dyz     :     0.007441
      dx2y2   :     0.015322
      dxy     :     0.013752

 20 C s       :     3.049177  s :     3.049177
      pz      :     0.813834  p :     2.512779
      px      :     0.910581
      py      :     0.788365
      dz2     :     0.009710  d :     0.122862
      dxz     :     0.009979
      dyz     :     0.027451
      dx2y2   :     0.032682
      dxy     :     0.043041

 21 O s       :     3.844135  s :     3.844135
      pz      :     1.479559  p :     4.528257
      px      :     1.706749
      py      :     1.341949
      dz2     :     0.006629  d :     0.036101
      dxz     :     0.004235
      dyz     :     0.007857
      dx2y2   :     0.012175
      dxy     :     0.005204

 22 O s       :     3.732902  s :     3.732902
      pz      :     1.644417  p :     4.443049
      px      :     1.241486
      py      :     1.557147
      dz2     :     0.000923  d :     0.007357
      dxz     :     0.001369
      dyz     :     0.010426
      dx2y2   :     0.003310
      dxy     :    -0.008671

 23 C s       :     3.224833  s :     3.224833
      pz      :     1.044336  p :     2.903544
      px      :     0.736204
      py      :     1.123004
      dz2     :     0.008040  d :     0.061856
      dxz     :     0.014683
      dyz     :     0.013278
      dx2y2   :     0.017334
      dxy     :     0.008522

 24 C s       :     3.256275  s :     3.256275
      pz      :     1.019968  p :     3.221813
      px      :     1.064409
      py      :     1.137436
      dz2     :     0.004729  d :     0.035932
      dxz     :     0.007602
      dyz     :     0.011103
      dx2y2   :     0.010238
      dxy     :     0.002260

 25 H s       :     0.834483  s :     0.834483

 26 H s       :     0.831554  s :     0.831554

 27 H s       :     0.803809  s :     0.803809

 28 H s       :     0.820297  s :     0.820297

 29 H s       :     0.823370  s :     0.823370

 30 C s       :     3.116637  s :     3.116637
      pz      :     1.110575  p :     3.116882
      px      :     1.043246
      py      :     0.963061
      dz2     :     0.013379  d :     0.045005
      dxz     :     0.005408
      dyz     :     0.005269
      dx2y2   :     0.009865
      dxy     :     0.011085

 31 H s       :     0.826806  s :     0.826806

 32 H s       :     0.795215  s :     0.795215

 33 C s       :     3.369079  s :     3.369079
      pz      :     1.138278  p :     2.898049
      px      :     0.902612
[...]
109:   1491.86   0.002761   13.95  0.000578  ( 0.008950  0.006960 -0.021190)
110:   1493.01   0.001520    7.68  0.000318  ( 0.002087 -0.014814  0.009688)
111:   1496.20   0.000334    1.69  0.000070  ( 0.001197  0.001192  0.008180)
112:   1506.80   0.003825   19.33  0.000792  ( 0.013849 -0.008709 -0.022903)
113:   1507.88   0.002441   12.34  0.000505  (-0.022088 -0.003192 -0.002670)
114:   1509.87   0.001592    8.05  0.000329  (-0.012303 -0.010908 -0.007662)
115:   1516.30   0.002184   11.04  0.000450  ( 0.000765  0.009885 -0.018742)
116:   1519.16   0.003129   15.81  0.000643  ( 0.003096  0.024990 -0.002957)
117:   1524.67   0.043406  219.36  0.008884  (-0.085239 -0.034382  0.020892)
118:   1678.27   0.012829   64.83  0.002385  ( 0.031740  0.036902 -0.004037)
119:   1695.03   0.007223   36.50  0.001330  ( 0.031115 -0.000402  0.019012)
120:   1719.53   0.033243  168.00  0.006033  ( 0.016005  0.025161 -0.071721)
121:   1736.20   0.025206  127.38  0.004531  ( 0.019421  0.062299 -0.016500)
122:   2925.06   0.004757   24.04  0.000507  (-0.000974  0.008728  0.020745)
123:   2954.44   0.004933   24.93  0.000521  (-0.020805  0.006270 -0.006996)
124:   2964.16   0.002922   14.77  0.000308  ( 0.007819 -0.003310 -0.015348)
125:   2982.39   0.006535   33.03  0.000684  ( 0.000037 -0.007795  0.024961)
126:   2990.37   0.004226   21.36  0.000441  ( 0.020157 -0.004094  0.004241)
127:   2996.90   0.005931   29.97  0.000618  (-0.020337 -0.011190  0.008878)
128:   2997.68   0.007174   36.25  0.000747  (-0.002856  0.011858  0.024454)
129:   3005.30   0.006453   32.61  0.000670  ( 0.025058 -0.006410 -0.001012)
130:   3008.69   0.005031   25.42  0.000522  ( 0.020314 -0.005889 -0.008631)
131:   3016.61   0.002504   12.66  0.000259  (-0.012898 -0.000084 -0.009629)
132:   3030.72   0.002547   12.87  0.000262  (-0.004860 -0.009859 -0.011892)
133:   3033.93   0.006074   30.70  0.000625  ( 0.016608  0.010266  0.015606)
134:   3035.33   0.006965   35.20  0.000716  ( 0.013381 -0.001207  0.023142)
135:   3054.89   0.000712    3.60  0.000073  ( 0.008386 -0.001115  0.001055)
136:   3063.91   0.010560   53.36  0.001076  ( 0.017053 -0.024960  0.012716)
137:   3064.22   0.002148   10.85  0.000219  (-0.010780  0.006199  0.008005)
138:   3072.63   0.007518   37.99  0.000764  ( 0.006405  0.018585 -0.019420)
139:   3073.59   0.003906   19.74  0.000397  ( 0.014250  0.006119  0.012493)
140:   3079.87   0.005852   29.57  0.000593  ( 0.002652  0.010189  0.021956)
141:   3081.07   0.014606   73.81  0.001479  ( 0.008069 -0.033886 -0.016309)
142:   3083.57   0.004214   21.30  0.000427  (-0.012550 -0.012390 -0.010747)
143:   3092.09   0.003154   15.94  0.000318  (-0.000614  0.002251  0.017687)
144:   3100.27   0.002125   10.74  0.000214  ( 0.000948  0.011929 -0.008407)
145:   3106.51   0.006062   30.64  0.000609  (-0.008189  0.021092 -0.009852)
146:   3160.39   0.000113    0.57  0.000011  ( 0.000916 -0.001929  0.002561)
147:   3434.28   0.000132    0.67  0.000012  (-0.000813 -0.001841  0.002819)
148:   3513.13   0.000451    2.28  0.000040  ( 0.005254  0.001620 -0.003129)
149:   3566.83   0.002706   13.68  0.000237  ( 0.002135  0.009512 -0.011905)

* The epsilon (eps) is given for a Dirac delta lineshape.
** The dipole moment derivative (T) already includes vibrational overlap.

The first frequency considered to be a vibration is 6
The total number of vibrations considered is 144


--------------------------
THERMOCHEMISTRY AT 298.15K
--------------------------

Temperature         ...   298.15 K
Pressure            ...     1.00 atm
Total Mass          ...   312.41 AMU
Quasi RRHO          ...     True
Cut-Off Frequency   ...     1.00 cm^-1

Throughout the following assumptions are being made:
  (1) The electronic state is orbitally nondegenerate
  (2) There are no thermally accessible electronically excited states
  (3) Hindered rotations indicated by low frequency modes are not
      treated as such but are treated as vibrations and this may
      cause some error
  (4) All equations used are the standard statistical mechanics
      equations for an ideal gas
  (5) All vibrations are strictly harmonic

freq.      26.56  E(vib)   ...       0.56 
freq.      33.58  E(vib)   ...       0.55 
freq.      39.75  E(vib)   ...       0.54 
freq.      42.14  E(vib)   ...       0.53 
freq.      61.37  E(vib)   ...       0.51 
freq.      64.35  E(vib)   ...       0.51 
freq.      74.42  E(vib)   ...       0.49 
freq.      82.67  E(vib)   ...       0.48 
freq.      93.81  E(vib)   ...       0.47 
freq.      99.05  E(vib)   ...       0.46 
freq.     103.35  E(vib)   ...       0.46 
freq.     117.39  E(vib)   ...       0.44 
freq.     133.02  E(vib)   ...       0.42 
freq.     141.12  E(vib)   ...       0.41 
freq.     169.34  E(vib)   ...       0.38 
freq.     178.59  E(vib)   ...       0.37 
freq.     214.62  E(vib)   ...       0.34 
freq.     219.73  E(vib)   ...       0.33 
freq.     225.46  E(vib)   ...       0.33 
freq.     243.65  E(vib)   ...       0.31 
freq.     256.36  E(vib)   ...       0.30 
freq.     265.66  E(vib)   ...       0.29 
freq.     283.87  E(vib)   ...       0.28 
freq.     300.59  E(vib)   ...       0.26 
freq.     307.81  E(vib)   ...       0.26 
freq.     325.16  E(vib)   ...       0.24 
freq.     349.93  E(vib)   ...       0.23 
freq.     374.15  E(vib)   ...       0.21 
freq.     386.90  E(vib)   ...       0.20 
freq.     394.82  E(vib)   ...       0.20 
freq.     417.29  E(vib)   ...       0.18 
freq.     430.40  E(vib)   ...       0.18 
freq.     457.30  E(vib)   ...       0.16 
freq.     463.96  E(vib)   ...       0.16 
freq.     499.12  E(vib)   ...       0.14 
freq.     507.27  E(vib)   ...       0.14 
freq.     554.59  E(vib)   ...       0.12 
freq.     560.74  E(vib)   ...       0.11 
freq.     590.59  E(vib)   ...       0.10 
freq.     623.89  E(vib)   ...       0.09 
freq.     628.02  E(vib)   ...       0.09 
freq.     670.93  E(vib)   ...       0.08 
freq.     728.47  E(vib)   ...       0.06 
freq.     750.77  E(vib)   ...       0.06 
freq.     767.17  E(vib)   ...       0.06 
freq.     776.22  E(vib)   ...       0.05 
freq.     814.77  E(vib)   ...       0.05 
freq.     846.97  E(vib)   ...       0.04 
freq.     858.38  E(vib)   ...       0.04 
freq.     877.94  E(vib)   ...       0.04 
freq.     893.62  E(vib)   ...       0.03 
freq.     898.43  E(vib)   ...       0.03 
freq.     918.63  E(vib)   ...       0.03 
freq.     924.09  E(vib)   ...       0.03 
freq.     930.14  E(vib)   ...       0.03 
freq.     942.38  E(vib)   ...       0.03 
freq.     983.72  E(vib)   ...       0.02 
freq.    1002.28  E(vib)   ...       0.02 
freq.    1008.76  E(vib)   ...       0.02 
freq.    1028.18  E(vib)   ...       0.02 
freq.    1030.34  E(vib)   ...       0.02 
freq.    1038.32  E(vib)   ...       0.02 
freq.    1043.40  E(vib)   ...       0.02 
freq.    1047.13  E(vib)   ...       0.02 
freq.    1057.81  E(vib)   ...       0.02 
freq.    1074.41  E(vib)   ...       0.02 
freq.    1088.18  E(vib)   ...       0.02 
freq.    1112.00  E(vib)   ...       0.01 
freq.    1115.55  E(vib)   ...       0.01 
freq.    1136.26  E(vib)   ...       0.01 
freq.    1136.51  E(vib)   ...       0.01 
freq.    1148.03  E(vib)   ...       0.01 
freq.    1164.76  E(vib)   ...       0.01 
freq.    1179.91  E(vib)   ...       0.01 
freq.    1184.89  E(vib)   ...       0.01 
freq.    1190.41  E(vib)   ...       0.01 
freq.    1215.95  E(vib)   ...       0.01 
freq.    1233.82  E(vib)   ...       0.01 
freq.    1264.72  E(vib)   ...       0.01 
freq.    1286.84  E(vib)   ...       0.01 
freq.    1295.59  E(vib)   ...       0.01 
freq.    1304.22  E(vib)   ...       0.01 
freq.    1313.12  E(vib)   ...       0.01 
freq.    1315.69  E(vib)   ...       0.01 
freq.    1328.07  E(vib)   ...       0.01 
freq.    1337.41  E(vib)   ...       0.01 
freq.    1343.97  E(vib)   ...       0.01 
freq.    1367.29  E(vib)   ...       0.01 
freq.    1372.94  E(vib)   ...       0.01 
freq.    1382.36  E(vib)   ...       0.01 
freq.    1384.83  E(vib)   ...       0.00 
freq.    1393.15  E(vib)   ...       0.00 
freq.    1394.71  E(vib)   ...       0.00 
freq.    1398.48  E(vib)   ...       0.00 
freq.    1402.74  E(vib)   ...       0.00 
freq.    1410.07  E(vib)   ...       0.00 
freq.    1412.69  E(vib)   ...       0.00 
freq.    1413.03  E(vib)   ...       0.00 
freq.    1426.15  E(vib)   ...       0.00 
freq.    1476.37  E(vib)   ...       0.00 
freq.    1477.95  E(vib)   ...       0.00 
freq.    1481.30  E(vib)   ...       0.00 
freq.    1488.17  E(vib)   ...       0.00 
freq.    1491.86  E(vib)   ...       0.00 
freq.    1493.01  E(vib)   ...       0.00 
freq.    1496.20  E(vib)   ...       0.00 
freq.    1506.80  E(vib)   ...       0.00 
freq.    1507.88  E(vib)   ...       0.00 
freq.    1509.87  E(vib)   ...       0.00 
freq.    1516.30  E(vib)   ...       0.00 
freq.    1519.16  E(vib)   ...       0.00 
freq.    1524.67  E(vib)   ...       0.00 
freq.    1678.27  E(vib)   ...       0.00 
freq.    1695.03  E(vib)   ...       0.00 
freq.    1719.53  E(vib)   ...       0.00 
freq.    1736.20  E(vib)   ...       0.00 
freq.    2925.06  E(vib)   ...       0.00 
freq.    2954.44  E(vib)   ...       0.00 
freq.    2964.16  E(vib)   ...       0.00 
freq.    2982.39  E(vib)   ...       0.00 
freq.    2990.37  E(vib)   ...       0.00 
freq.    2996.90  E(vib)   ...       0.00 
freq.    2997.68  E(vib)   ...       0.00 
freq.    3005.30  E(vib)   ...       0.00 
freq.    3008.69  E(vib)   ...       0.00 
freq.    3016.61  E(vib)   ...       0.00 
freq.    3030.72  E(vib)   ...       0.00 
freq.    3033.93  E(vib)   ...       0.00 
freq.    3035.33  E(vib)   ...       0.00 
freq.    3054.89  E(vib)   ...       0.00 
freq.    3063.91  E(vib)   ...       0.00 
freq.    3064.22  E(vib)   ...       0.00 
freq.    3072.63  E(vib)   ...       0.00 
freq.    3073.59  E(vib)   ...       0.00 
freq.    3079.87  E(vib)   ...       0.00 
freq.    3081.07  E(vib)   ...       0.00 
freq.    3083.57  E(vib)   ...       0.00 
freq.    3092.09  E(vib)   ...       0.00 
freq.    3100.27  E(vib)   ...       0.00 
freq.    3106.51  E(vib)   ...       0.00 
freq.    3160.39  E(vib)   ...       0.00 
freq.    3434.28  E(vib)   ...       0.00 
freq.    3513.13  E(vib)   ...       0.00 
freq.    3566.83  E(vib)   ...       0.00 

------------
INNER ENERGY
------------

The inner energy is: U= E(el) + E(ZPE) + E(vib) + E(rot) + E(trans)
    E(el)   - is the total energy from the electronic structure calculation
              = E(kin-el) + E(nuc-el) + E(el-el) + E(nuc-nuc)
    E(ZPE)  - the the zero temperature vibrational energy from the frequency calculation
    E(vib)  - the the finite temperature correction to E(ZPE) due to population
              of excited vibrational states
    E(rot)  - is the rotational thermal energy
    E(trans)- is the translational thermal energy

Summary of contributions to the inner energy U:
Electronic energy                ...  -1036.52205622 Eh
Zero point energy                ...      0.43175232 Eh     270.93 kcal/mol
Thermal vibrational correction   ...      0.02234884 Eh      14.02 kcal/mol
Thermal rotational correction    ...      0.00141627 Eh       0.89 kcal/mol
Thermal translational correction ...      0.00141627 Eh       0.89 kcal/mol
-----------------------------------------------------------------------
Total thermal energy                  -1036.06512252 Eh


Summary of corrections to the electronic energy:
(perhaps to be used in another calculation)
Total thermal correction                  0.02518139 Eh      15.80 kcal/mol
Non-thermal (ZPE) correction              0.43175232 Eh     270.93 kcal/mol
-----------------------------------------------------------------------
Total correction                          0.45693370 Eh     286.73 kcal/mol


--------
ENTHALPY
--------

The enthalpy is H = U + kB*T
                kB is Boltzmann's constant
Total thermal energy              ...  -1036.06512252 Eh 
Thermal Enthalpy correction       ...      0.00094421 Eh       0.59 kcal/mol
-----------------------------------------------------------------------
Total Enthalpy                    ...  -1036.06417831 Eh


Note: Only C1 symmetry has been detected, increase convergence thresholds 
      if your molecule has a higher symmetry. Symmetry factor of 1.0 is   
      used for the rotational entropy correction. 
 

Note: Rotational entropy computed according to Herzberg 
Infrared and Raman Spectra, Chapter V,1, Van Nostrand Reinhold, 1945 
Point Group:  C1, Symmetry Number:   1  
Rotational constants in cm-1:     0.012744     0.005823     0.004314 

Vibrational entropy computed according to the QRRHO of S. Grimme
Chem.Eur.J. 2012 18 9955 using a reference frequency of 100.0 cm-1


-------
ENTROPY
-------

The entropy contributions are T*S = T*(S(el)+S(vib)+S(rot)+S(trans))
     S(el)   - electronic entropy
     S(vib)  - vibrational entropy
     S(rot)  - rotational entropy
     S(trans)- translational entropy
The entropies will be listed as multiplied by the temperature to get
units of energy

Electronic entropy                ...      0.00000000 Eh      0.00 kcal/mol
Vibrational entropy               ...      0.04024399 Eh     25.25 kcal/mol
Rotational entropy                ...      0.01657066 Eh     10.40 kcal/mol
Translational entropy             ...      0.02048458 Eh     12.85 kcal/mol
-----------------------------------------------------------------------
Final entropy term                ...      0.07729923 Eh     48.51 kcal/mol

In case the symmetry of your molecule has not been determined correctly
or in case you have a reason to use a different symmetry number we print 
out the resulting rotational entropy values for sn=1,12:

 non-linear molecules -----------------------------------
|  sn= 1 | S(rot)=       0.01657066 Eh     10.40 kcal/mol|
|  sn= 2 | S(rot)=       0.01591620 Eh      9.99 kcal/mol|
|  sn= 3 | S(rot)=       0.01553337 Eh      9.75 kcal/mol|
|  sn= 4 | S(rot)=       0.01526174 Eh      9.58 kcal/mol|
|  sn= 5 | S(rot)=       0.01505106 Eh      9.44 kcal/mol|
|  sn= 6 | S(rot)=       0.01487891 Eh      9.34 kcal/mol|
|  sn= 7 | S(rot)=       0.01473337 Eh      9.25 kcal/mol|
|  sn= 8 | S(rot)=       0.01460729 Eh      9.17 kcal/mol|
|  sn= 9 | S(rot)=       0.01449608 Eh      9.10 kcal/mol|
|  sn=10 | S(rot)=       0.01439660 Eh      9.03 kcal/mol|
|  sn=11 | S(rot)=       0.01430661 Eh      8.98 kcal/mol|
|  sn=12 | S(rot)=       0.01422446 Eh      8.93 kcal/mol|
 linear molecules ---------------------------------------
|  Dinfh | S(rot)=       0.01046767 Eh      6.57 kcal/mol|
|  Cinfv | S(rot)=       0.01112213 Eh      6.98 kcal/mol|
 --------------------------------------------------------


-------------------
GIBBS FREE ENERGY
-------------------

The Gibbs free energy is G = H - T*S

Total enthalpy                    ...  -1036.06417831 Eh 
Total entropy correction          ...     -0.07729923 Eh    -48.51 kcal/mol
-----------------------------------------------------------------------
Final Gibbs free energy         ...  -1036.14147754 Eh

For completeness - the Gibbs free energy minus the electronic energy
G-E(el)                           ...      0.38057868 Eh    238.82 kcal/mol


Maximum memory used throughout the entire PROP-calculation: 156.6 MB

--------------------------------
SUGGESTED CITATIONS FOR THIS RUN
--------------------------------

Below you find a list of papers that are relevant to this ORCA run
We neither can nor want to force you to cite these papers, but we appreciate if you do
You receive ORCA, which is the product of decades of hard work by many enthusiastic individuals, for free
The only thing we kindly ask in return is that you cite our papers,
We deeply appreciate it, if you show your appreciation for ORCA by not just citing the generic ORCA reference.

Please note that relegating all ORCA citations to the supporting information does *not* help us.
SI sections are not indexed - citations you put there will not count into any citation statistics
But we need these citations in order to attract the funding resources that allow us to do what we are doing

Therefore, if you are a happy ORCA user, please consider citing a few of the papers listed below in the main body of your paper

In addition to the list printed below, the program has created the file m1_00_Tamiflu-GitHubGFN2-B97-3C-TZ.bibtex that contains the list in bibtex format
You can import this file easily into all common literature databanks and citation aid programs


List of essential papers. We consider these as the minimum necessary citations

  1. Neese,F.
     Software update: the ORCA program system, version 5.0
     WIRES Comput. Molec. Sci., 2022 12(1)e1606
     doi.org/10.1002/wcms.1606

List of papers to cite with high priority. The work reported in these papers was absolutely
necessary for this run to complete.
Our perspective: the developers of density functionals and basis sets usually get cited in chemistry papers
Good! But without the algorithms to do something with them, the functionals or basis sets would not do anything.
Hence, in our opinion, the algorithm design and method developments papers are equally worthy of getting cited

  1. Neese,F.
     An improvement of the resolution of the identity approximation for the formation of the Coulomb matrix
     J. Comp. Chem., 2003 24(14)1740-1747
     doi.org/10.1002/jcc.10318
  2. Bykov,D.; Petrenko,T.; Izsak,R.; Kossmann,S.; Becker,U.; Valeev,E.; Neese,F.
     Efficient implementation of the analytic second derivatives of Hartree-Fock and hybrid DFT energies: a detailed analysis of different approximations
     Molec. Phys., 2015 113 1961-1977
     doi.org/10.1080/00268976.2015.1025114
  3. Neese,F.
     The SHARK Integral Generation and Digestion System
     J. Comp. Chem., 2022  1-16
     doi.org/10.1002/jcc.26942
  4. Grimme,S.; Antony,J.; Ehrlich,S.; Krieg,H.
     A consistent and accurate ab initio parametrization of density functional dispersion correction (DFT-D) for the 94 elements H-Pu
     J. Chem. Phys., 2010 132 154104
     doi.org/10.1063/1.3382344
  5. Grimme,S.; Ehrlich,S.; Goerigk,L.
     Effect of the damping function in dispersion corrected density functional theory
     J. Comput. Chem., 2011 32(7)1456-1465
     doi.org/10.1002/jcc.21759

List of suggested additional citations. These are papers that are important in the 'surrounding' of 
of this run, or papers that preceded the highly important papers. If you like your results we are grateful for a citation.

  1. Neese,F.
     The ORCA program system
     WIRES Comput. Molec. Sci., 2012 2(1)73-78
     doi.org/10.1002/wcms.81
  2. Neese,F.
     Software update: the ORCA program system, version 4.0
     WIRES Comput. Molec. Sci., 2018 8(1)1-6
     doi.org/10.1002/wcms.1327
  3. Neese,F.; Wennmohs,F.; Becker,U.; Riplinger,C.
     The ORCA quantum chemistry program package
     J. Chem. Phys., 2020 152 Art. No. L224108
     doi.org/10.1063/5.0004608

List of optional additional citations

  1. Neese,F.
     Approximate second-order SCF convergence for spin unrestricted wavefunctions
     Chem. Phys. Lett., 2000 325(1-3)93-98
     doi.org/10.1016/s0009-2614(00)00662-x

Timings for individual modules:

Sum of individual times          ...      983.282 sec (=  16.388 min)
Startup calculation              ...       91.565 sec (=   1.526 min)   9.3 %
SCF iterations                   ...      262.668 sec (=   4.378 min)  26.7 %
Property integrals               ...      181.750 sec (=   3.029 min)  18.5 %
SCF Response                     ...      224.022 sec (=   3.734 min)  22.8 %
Property calculations            ...       71.842 sec (=   1.197 min)   7.3 %
SCF Gradient evaluation          ...      151.213 sec (=   2.520 min)  15.4 %
Geometry relaxation              ...        0.221 sec (=   0.004 min)   0.0 %
                             ****ORCA TERMINATED NORMALLY****
TOTAL RUN TIME: 0 days 0 hours 16 minutes 27 seconds 421 msec
