
                                 *****************
                                 * O   R   C   A *
                                 *****************

                                            #,                                       
                                            ###                                      
                                            ####                                     
                                            #####                                    
                                            ######                                   
                                           ########,                                 
                                     ,,################,,,,,                         
                               ,,#################################,,                 
                          ,,##########################################,,             
                       ,#########################################, ''#####,          
                    ,#############################################,,   '####,        
                  ,##################################################,,,,####,       
                ,###########''''           ''''###############################       
              ,#####''   ,,,,##########,,,,          '''####'''          '####       
            ,##' ,,,,###########################,,,                        '##       
           ' ,,###''''                  '''############,,,                           
         ,,##''                                '''############,,,,        ,,,,,,###''
      ,#''                                            '''#######################'''  
     '                                                          ''''####''''         
             ,#######,   #######,   ,#######,      ##                                
            ,#'     '#,  ##    ##  ,#'     '#,    #''#        ,####,   ,####,        
            ##       ##  ##   ,#'  ##            #'  '#       #'       #'  '#        
            ##       ##  #######   ##           ,######,      #####,   #    #        
            '#,     ,#'  ##    ##  '#,     ,#' ,#      #,     #,   #   #,  ,#        
             '#######'   ##     ##  '#######'  #'      '#     '####' # '####'        



                #########################################################
                #                        -***-                          #
                #          Department of theory and spectroscopy        #
                #                                                       #
                #                      Frank Neese                      #
                #                                                       #
                #     Directorship, Architecture, Infrastructure        #
                #                    SHARK, DRIVERS                     #
                #        Core code/Algorithms in most modules           #
                #                                                       #
                #        Max Planck Institute fuer Kohlenforschung      #
                #                Kaiser Wilhelm Platz 1                 #
                #                 D-45470 Muelheim/Ruhr                 #
                #                      Germany                          #
                #                                                       #
                #                  All rights reserved                  #
                #                        -***-                          #
                #########################################################


                         Program Version 6.0.1  -  RELEASE   -


 With contributions from (in alphabetic order):
[Max-Planck-Institut fuer Kohlenforschung]                               
  Daniel Aravena         : Magnetic Suceptibility                        
  Michael Atanasov       : Ab Initio Ligand Field Theory (pilot matlab implementation)
  Alexander A. Auer      : GIAO ZORA, VPT2 properties, NMR spectrum      
  Ute Becker             : All parallelization in ORCA, NUMFREQ, NUMCALC 
  Giovanni Bistoni       : ED, misc. LED, open-shell LED, HFLD           
  Martin Brehm           : Molecular dynamics                            
  Dmytro Bykov           : pre 5.0 version of the SCF Hessian            
  Marcos Casanova-Páez   : Triplet and SCS-CIS(D). UHF-(DLPNO)-IP/EA/STEOM-CCSD. UHF-CVS-IP/STEOM-CCSD   
  Vijay G. Chilkuri      : MRCI spin determinant printing, contributions to CSF-ICE 
  Pauline Colinet        : FMM embedding                                 
  Dipayan Datta          : RHF DLPNO-CCSD density                        
  Achintya Kumar Dutta   : EOM-CC, STEOM-CC                              
  Nicolas Foglia         : Exact transition moments, OPA infrastructure, MCD improvements    
  Dmitry Ganyushin       : Spin-Orbit,Spin-Spin,Magnetic field MRCI      
  Miquel Garcia-Rates    : C-PCM and meta-GGA Hessian, CCSD/C-PCM, Gaussian charge scheme 
  Tiago L. C. Gouveia    : GS-ROHF, GS-ROCIS                             
  Yang Guo               : DLPNO-NEVPT2, F12-NEVPT2, CIM, IAO-localization        
  Andreas Hansen         : Spin unrestricted coupled pair/coupled cluster methods 
  Ingolf Harden          : AUTO-CI MPn and infrastructure                
  Benjamin Helmich-Paris : MC-RPA, TRAH-(SCF,CASSCF), AVAS, COSX integrals, SCF dyn. polar. 
  Lee Huntington         : MR-EOM, pCC                                   
  Robert Izsak           : Overlap fitted RIJCOSX, COSX-SCS-MP3, EOM     
  Riya Kayal             : Wick's Theorem for AUTO-CI, AUTO-CI UHF-CCSDT 
  Emily Kempfer          : AUTO-CI, RHF CISDT and CCSDT                  
  Christian Kollmar      : KDIIS, OOCD, Brueckner-CCSD(T), CCSD density, CASPT2, CASPT2-K, improved NEVPT2 
  Axel Koslowski         : Symmetry handling                             
  Simone Kossmann        : meta-GGA functionals, TD-DFT gradient, OOMP2, (MP2 Hessian; deprecated post 5.0) 
  Lucas Lang             : DCDCAS                                        
  Marvin Lechner         : AUTO-CI (C++ implementation), FIC-MRCC        
  Spencer Leger          : CASSCF response                               
  Dagmar Lenk            : GEPOL surface, SMD, ORCA-2-JSON               
  Dimitrios Liakos       : Extrapolation schemes; Compound Job, initial MDCI parallelization 
  Dimitrios Manganas     : Further ROCIS development; embedding schemes. LFT, Crystal Embedding 
  Dimitrios Pantazis     : SARC Basis sets                               
  Anastasios Papadopoulos: AUTO-CI, single reference methods and gradients 
  Taras Petrenko         : pre 6.0 DFT Hessian and TD-DFT gradient, (ASA, deprecated), ECA, 1-Electron XAS/XES, NRVS 
  Peter Pinski           : DLPNO-MP2, DLPNO-MP2 Gradient                 
  Christoph Reimann      : Effective Core Potentials                     
  Marius Retegan         : Local ZFS, SOC                                
  Christoph Riplinger    : Optimizer, TS searches, QM/MM, DLPNO-CCSD(T), (RO)-DLPNO pert. Triples 
  Michael Roemelt        : Original ROCIS implementation                 
  Masaaki Saitow         : Open-shell DLPNO-CCSD energy and density      
  Barbara Sandhoefer     : DKH picture change effects                    
  Kantharuban Sivalingam : CASSCF convergence/infrastructure, NEVPT2 and variants, FIC-MRCI 
  Bernardo de Souza      : ESD, SOC TD-DFT                               
  Georgi L. Stoychev     : AutoAux, RI-MP2 NMR, DLPNO-MP2 response, X2C  
  Van Anh Tran           : RI-MP2 g-tensors                              
  Willem Van den Heuvel  : Paramagnetic NMR                              
  Zikuan Wang            : NOTCH, Electric field optimization            
  Frank Wennmohs         : Technical directorship and infrastructure     
  Hang Xu                : AUTO-CI-Response properties                   
                                                                         
[FACCTs GmbH]                                                            
  Markus Bursch, Miquel Garcia-Rates, Christoph Riplinger, Bernardo de Souza, Georgi L. Stoychev 
                                                                 
  APM, Basis sets (HGBS, AHGBS, def-TZVP (Ac-Lr), def2-XVPD (La-Lu)), CI-OPT, improved COSX, DLPNO-Multilevel,           
  DOCKER, DRACO, updates on ESD, GOAT, IRC, LR-CPCM, MBIS, meta-GGA TD-DFT gradient, ML-optimized integration grids, 
  MM, NACMEs, nearIR, NEB, NEB-TS, NL-DFT gradient (VV10), 2- and 3-layer-ONIOM, interface openCOSMO-RS, QMMM,   
  Crystal-QMMM, SF, symmetry and pop. for TD-DFT, r2SCAN hybrids, SOLVATOR                                   
                                                                         
[Other institutions]                                                     
  V. Asgeirsson          : NEB                                           
  Christoph Bannwarth    : sTDA-DFT, sTD-DFT, PBEh-3c, B97-3c, D3        
  Sebastian Ehlert       : rSCAN, r2SCAN, r2SCAN-3c, D4, dhf basis sets  
  Marvin Friede          : D4 for Fr, Ra, Ac-Lr                          
  Lars Goerigk           : TD-DFT with DH, B97 family of functionals     
  Stefan Grimme          : VdW corrections, initial TS optimization, DFT functionals, gCP, sTDA/sTD-DF 
  Waldemar Hujo          : DFT-NL                                        
  H. Jonsson             : NEB                                           
  Holger Kruse           : gCP                                           
  Marcel Mueller         : wB97X-3c, vDZP basis set                      
  Hagen Neugebauer       : wr2SCAN                                       
  Tobias Risthaus        : range-separated hybrid DFT                    
  Lukas Wittmann         : regularized MP2, r2SCAN double-hybrids, wr2SCAN        
                                                                         
We gratefully acknowledge several colleagues who have allowed us to      
interface, adapt or use parts of their codes:                            
  Ed Valeev, F. Pavosevic, A. Kumar             : LibInt (2-el integral package), F12 methods 
  Garnet Chan, S. Sharma, J. Yang, R. Olivares  : DMRG                   
  Ulf Ekstrom                                   : XCFun DFT Library      
  Mihaly Kallay                                 : mrcc  (arbitrary order and MRCC methods)
  Frank Weinhold                                : gennbo (NPA and NBO analysis)           
  Simon Mueller                                 : openCOSMO-RS                            
  Christopher J. Cramer and Donald G. Truhlar   : smd solvation model                     
  S Lehtola, MJT Oliveira, MAL Marques          : LibXC Library                           
  Liviu Ungur et al                             : ANISO software                          


 Your calculation uses the libint2 library for the computation of 2-el integrals
 For citations please refer to: http://libint.valeyev.net

 Your ORCA version has been built with support for libXC version: 6.2.2
 For citations please refer to: https://libxc.gitlab.io

 This ORCA versions uses:
   CBLAS   interface :  Fast vector & matrix operations
   LAPACKE interface :  Fast linear algebra routines
   SCALAPACK package :  Parallel linear algebra routines
   Shared memory     :  Shared parallel matrices
   BLAS/LAPACK       :  OpenBLAS 0.3.27  USE64BITINT DYNAMIC_ARCH NO_AFFINITY Zen SINGLE_THREADED
        Core in use  :  Zen
   Copyright (c) 2011-2014, The OpenBLAS Project


NOTE: MaxCore=6000 MB was set to SCF,MP2,MDCI,CIPSI,MRCI and CIS
      => If you want to overwrite this, your respective input block should be placed after the MaxCore statement
Your calculation utilizes the atom-pairwise dispersion correction
with the Becke-Johnson damping scheme (D3BJ)


Your calculation employs the composite approach B97-3c by Grimme and coworkers.
For the correct reference, please check the publication list of the Grimme group:
http://www.thch.uni-bonn.de/tc/index.php?section=publikationen&subsection=grimme#2017
   

XCFun DFT library Copyright 2009-2010 Ulf Ekstrom and contributors.
See http://admol.org/xcfun for more information.
This is free software; see the source code for copying conditions.
There is ABSOLUTELY NO WARRANTY; not even for MERCHANTABILITY or FITNESS FOR A PARTICULAR PURPOSE.
For details see the documentation.
Scientific users of this library should cite U. Ekstrom, L. Visscher, R. Bast, A. J. Thorvaldsen and K. Ruud;
J.Chem.Theor.Comp. 2010, DOI: 10.1021/ct100117s
XCFun Version 0.99 

================================================================================

----- Orbital basis set information -----
Your calculation utilizes the basis: def2-mTZVP
----- AuxJ basis set information -----
Your calculation utilizes the basis: def2-mTZVP/J
================================================================================
                                        WARNINGS
                       Please study these warnings very carefully!
================================================================================


WARNING: Geometry Optimization
  ===> : Switching off AutoStart
         For restart on a previous wavefunction, please use MOREAD

================================================================================
                                       INPUT FILE
================================================================================
NAME = m1_00_Esomeprazole-GitHubGFN2-B97-3C-TZ.inp
|  1> %pal nprocs 16 end
|  2> %MaxCore 6000
|  3> # put your comments here
|  4> ! B97-3C  OPT  FREQ DEFGRID3 NOTRAH
|  5> %scf MaxIter 800 end
|  6> %output
|  7> Print [P_Hirshfeld] 1
|  8> end
|  9> %geom
| 10> MaxIter 3000
| 11>  TolE 1e-6 #TolE 5e-6 Energy change (a.u.)
| 12>  TolRMSG 3e-5 #TolRMSG 1e-4 RMS gradient (a.u.)
| 13>  TolMaxG 1e-4 #TolMaxG 3e-3 Max. element of gradient (a.u.)
| 14>  TolRMSD 2e-3 #TolRMSD 2e-3 RMS displacement (a.u.)
| 15>  TolMaxD 4e-3 #TolMaxD 4e-3 Max. displacement (a.u.)
| 16> end
| 17> * xyz 0 1
| 18>  S        -2.4178132076         2.2325268362         0.4735858239
| 19>  O        -2.1401062914         3.5789648438        -0.0354162016
| 20>  C        -0.7778331632         1.5242729464         0.6862888485
| 21>  N        -0.4547781026         0.5135649825         1.4375338710
| 22>  C         0.8807399125         0.3038880639         1.1938778836
| 23>  C         1.7611049709        -0.6489908690         1.6998539084
| 24>  C         3.0525609731        -0.6381137950         1.2349749163
| 25>  C         3.5027309183         0.3016242149         0.2857509001
| 26>  C         2.6496208588         1.2710281496        -0.2152771248
| 27>  C         1.3435818571         1.2526100747         0.2517208673
| 28>  N         0.2572458087         2.0293779987        -0.0365491552
| 29>  H         0.1808137625         2.8066719809        -0.6727021714
| 30>  H         2.9612848158         2.0080201552        -0.9369471378
| 31>  O         4.8092199295         0.1636872921        -0.0721060889
| 32>  C         5.3494818769         1.0687183081        -1.0036151038
| 33>  H         4.8352148869         1.0075062554        -1.9682751058
| 34>  H         6.3898598967         0.7744613727        -1.1314940913
| 35>  H         5.3079588080         2.0983043129        -0.6337791249
| 36>  H         3.7740150173        -1.3570477412         1.5902249354
| 37>  H         1.4345920125        -1.3654958752         2.4353859209
| 38>  C        -2.8089651324         1.2185877796        -1.0756981581
| 39>  C        -1.9829690525        -0.0126001683        -1.1353541280
| 40>  N        -0.9256800517         0.0534208838        -1.9367591227
| 41>  C        -0.0862889859        -0.9619820626        -1.9708600969
| 42>  C        -0.2203709168        -2.1061740556        -1.1973010746
| 43>  C        -1.3357289178        -2.1717471107        -0.3575980802
| 44>  C        -2.2490669862        -1.1166281690        -0.3212591073
| 45>  C        -3.4322359895        -1.1546412269         0.5927318860
| 46>  H        -3.2888010400        -0.4531632011         1.4139828727
| 47>  H        -3.5506039274        -2.1559052264         0.9979939055
| 48>  H        -4.3433780037        -0.8843612965         0.0620978748
| 49>  O        -1.5537478509        -3.2841921089         0.4303609409
| 50>  C        -0.9115778629        -3.2205010419         1.6904219436
| 51>  H        -1.1192969275        -2.2701600452         2.1907719231
| 52>  H         0.1716951454        -3.3393569740         1.5867659528
| 53>  H        -1.3132768133        -4.0460600560         2.2761119578
| 54>  C         0.7953591543        -3.2024699910        -1.2479450460
| 55>  H         0.3510252131        -4.1426780133        -0.9303000298
| 56>  H         1.1860611678        -3.3122889862        -2.2570520413
| 57>  H         1.6298341349        -2.9657229237        -0.5861350456
| 58>  H         0.7542480110        -0.8485080219        -2.6434020939
| 59>  H        -3.8768671198         1.0200177115        -1.0323361607
| 60>  H        -2.5749111699         1.8808377779        -1.9066921700
| 61> *
| 62> 
| 63> 
| 64> 
| 65> 
| 66>                          ****END OF INPUT****
================================================================================

                       *****************************
                       * Geometry Optimization Run *
                       *****************************

Geometry optimization settings:
Update method            Update   .... BFGS
Choice of coordinates    CoordSys .... (2022) Redundant Internals
Initial Hessian          InHess   .... Almloef's Model
Max. no of cycles        MaxIter  .... 3000

Convergence Tolerances:
Energy Change            TolE     ....  1.0000e-06 Eh
Max. Gradient            TolMAXG  ....  1.0000e-04 Eh/bohr
RMS Gradient             TolRMSG  ....  3.0000e-05 Eh/bohr
Max. Displacement        TolMAXD  ....  4.0000e-03 bohr
RMS Displacement         TolRMSD  ....  2.0000e-03 bohr
Strict Convergence                .... False

------------------------------------------------------------------------------
                        ORCA OPTIMIZATION COORDINATE SETUP
------------------------------------------------------------------------------

The optimization will be done in redundant internal coordinates (2022)
Making redundant internal coordinates   ...  (2022 redundants) done
Evaluating the initial hessian          ...  (Almloef) done
Evaluating the coordinates              ...  done
Calculating the B-matrix                .... done
Calculating the G-matrix                .... done
Diagonalizing the G-matrix              .... done
Small eigenvalue found = 1.691e-03
Small eigenvalue found = 7.417e-03
Small eigenvalue found = 1.131e-02
Small eigenvalue found = 1.811e-02
Small eigenvalue found = 2.362e-02
Small eigenvalue found = 2.814e-02
The first mode is                       ....   90
The number of degrees of freedom        ....  123

    -----------------------------------------------------------------
                    Redundant Internal Coordinates


    -----------------------------------------------------------------
         Definition                    Initial Value    Approx d2E/dq
    -----------------------------------------------------------------
      1. B(O   1,S   0)                  1.4660         1.141355   
      2. B(C   2,S   0)                  1.7990         0.374950   
      3. B(N   3,C   2)                  1.3001         0.778579   
      4. B(C   4,N   3)                  1.3737         0.594217   
      5. B(C   5,C   4)                  1.3925         0.619104   
      6. B(C   6,C   5)                  1.3726         0.665986   
      7. B(C   7,C   6)                  1.4095         0.581531   
      8. B(C   8,C   7)                  1.3851         0.636088   
      9. B(C   9,C   8)                  1.3871         0.631390   
     10. B(C   9,C   4)                  1.4149         0.570170   
     11. B(N  10,C   9)                  1.3662         0.610651   
     12. B(N  10,C   2)                  1.3598         0.625291   
     13. B(H  11,N  10)                  1.0073         0.436969   
     14. B(H  12,C   8)                  1.0775         0.376962   
     15. B(O  13,C   7)                  1.3616         0.621095   
     16. B(C  14,O  13)                  1.4067         0.526388   
     17. B(H  15,C  14)                  1.0949         0.353688   
     18. B(H  16,C  14)                  1.0887         0.361788   
     19. B(H  17,C  14)                  1.0948         0.353828   
     20. B(H  18,C   6)                  1.0787         0.375382   
     21. B(H  19,C   5)                  1.0775         0.377027   
     22. B(C  20,S   0)                  1.8924         0.266002   
     23. B(C  21,C  20)                  1.4838         0.442682   
     24. B(N  22,C  21)                  1.3283         0.701877   
     25. B(C  23,N  22)                  1.3179         0.729379   
     26. B(C  24,C  23)                  1.3876         0.630235   
     27. B(C  25,C  24)                  1.3976         0.607483   
     28. B(C  26,C  25)                  1.3960         0.611202   
     29. B(C  26,C  21)                  1.3973         0.608272   
     30. B(C  27,C  26)                  1.4956         0.423952   
     31. B(H  28,C  27)                  1.0895         0.360709   
     32. B(H  29,C  27)                  1.0866         0.364578   
     33. B(H  30,C  27)                  1.0885         0.362107   
     34. B(O  31,C  25)                  1.3806         0.579344   
     35. B(C  32,O  31)                  1.4157         0.509191   
     36. B(H  33,C  32)                  1.0939         0.354961   
     37. B(H  34,H  19)                  2.4922         0.000399   
     38. B(H  34,C  32)                  1.0947         0.353946   
     39. B(H  35,C  32)                  1.0890         0.361412   
     40. B(C  36,C  24)                  1.4954         0.424252   
     41. B(H  37,C  36)                  1.0873         0.363628   
     42. B(H  38,C  36)                  1.0877         0.363208   
     43. B(H  39,C   8)                  4.3735         0.000002   
     44. B(H  39,C  36)                  1.0911         0.358714   
     45. B(H  40,C  23)                  1.0824         0.370232   
     46. B(H  41,C  20)                  1.0871         0.363995   
     47. B(H  42,C  20)                  1.0881         0.362655   
     48. A(O   1,S   0,C  20)          104.2999         0.461042   
     49. A(C   2,S   0,C  20)           94.2599         0.380218   
     50. A(O   1,S   0,C   2)          103.2943         0.491102   
     51. A(S   0,C   2,N   3)          126.9344         0.433137   
     52. A(S   0,C   2,N  10)          119.0013         0.416476   
     53. A(N   3,C   2,N  10)          114.0036         0.447054   
     54. A(C   2,N   3,C   4)          104.9369         0.442946   
     55. A(N   3,C   4,C   9)          109.4995         0.421585   
     56. A(N   3,C   4,C   5)          130.8945         0.427841   
     57. A(C   5,C   4,C   9)          119.6024         0.427473   
     58. A(C   4,C   5,H  19)          120.7637         0.355580   
     59. A(C   6,C   5,H  19)          121.4379         0.360021   
     60. A(C   4,C   5,C   6)          117.7978         0.439585   
     61. A(C   7,C   6,H  18)          116.9060         0.351569   
     62. A(C   5,C   6,C   7)          122.2660         0.434652   
     63. A(C   5,C   6,H  18)          120.8276         0.359753   
     64. A(C   8,C   7,O  13)          124.5277         0.433354   
     65. A(C   6,C   7,C   8)          120.8966         0.431077   
     66. A(C   6,C   7,O  13)          114.5757         0.426436   
     67. A(C   7,C   8,C   9)          116.6685         0.437506   
     68. A(C   9,C   8,H  12)          120.4563         0.356758   
     69. A(C   7,C   8,H  12)          122.8740         0.357207   
     70. A(C   8,C   9,N  10)          132.0716         0.431460   
     71. A(C   4,C   9,N  10)          105.1661         0.423645   
     72. A(C   4,C   9,C   8)          122.7567         0.428982   
     73. A(C   9,N  10,H  11)          129.2194         0.358340   
     74. A(C   2,N  10,H  11)          124.3732         0.359788   
     75. A(C   2,N  10,C   9)          106.3740         0.427897   
     76. A(C   7,O  13,C  14)          118.5151         0.416197   
     77. A(H  16,C  14,H  17)          109.2750         0.290251   
     78. A(H  15,C  14,H  17)          109.4144         0.289222   
     79. A(O  13,C  14,H  17)          111.5185         0.340217   
     80. A(H  15,C  14,H  16)          109.2834         0.290233   
     81. A(O  13,C  14,H  16)          105.7183         0.341485   
     82. A(O  13,C  14,H  15)          111.5357         0.340195   
     83. A(S   0,C  20,H  41)          105.5607         0.322775   
     84. A(H  41,C  20,H  42)          110.6683         0.291656   
     85. A(S   0,C  20,H  42)          104.7545         0.322580   
     86. A(S   0,C  20,C  21)          111.2490         0.371537   
     87. A(C  21,C  20,H  42)          110.7673         0.333927   
     88. A(C  21,C  20,H  41)          113.3844         0.334131   
     89. A(N  22,C  21,C  26)          122.8441         0.439453   
     90. A(C  20,C  21,C  26)          121.7469         0.407355   
     91. A(C  20,C  21,N  22)          115.2206         0.415132   
     92. A(C  21,N  22,C  23)          118.9654         0.451150   
     93. A(N  22,C  23,C  24)          124.0104         0.445364   
     94. A(C  24,C  23,H  40)          120.5195         0.355558   
     95. A(N  22,C  23,H  40)          115.4607         0.362252   
     96. A(C  25,C  24,C  36)          121.8710         0.404213   
     97. A(C  23,C  24,C  36)          121.3318         0.406847   
     98. A(C  23,C  24,C  25)          116.7897         0.433752   
     99. A(C  26,C  25,O  31)          119.3970         0.424925   
    100. A(C  24,C  25,O  31)          120.4467         0.424461   
    101. A(C  24,C  25,C  26)          120.1518         0.431368   
    102. A(C  25,C  26,C  27)          120.9503         0.404598   
    103. A(C  21,C  26,C  27)          121.7896         0.404255   
    104. A(C  21,C  26,C  25)          117.2212         0.431468   
    105. A(H  29,C  27,H  30)          108.6284         0.291660   
    106. A(H  28,C  27,H  30)          108.5291         0.291171   
    107. A(C  26,C  27,H  30)          110.9766         0.331459   
    108. A(H  28,C  27,H  29)          109.0548         0.291482   
    109. A(C  26,C  27,H  29)          109.7259         0.331832   
    110. A(C  26,C  27,H  28)          109.8851         0.331246   
    111. A(C  25,O  31,C  32)          113.5858         0.408672   
    112. A(H  34,C  32,H  35)          109.4896         0.290219   
    113. A(H  33,C  32,H  35)          110.0322         0.290350   
    114. A(O  31,C  32,H  35)          106.0972         0.339535   
    115. A(H  33,C  32,H  34)          108.9983         0.289400   
    116. A(O  31,C  32,H  34)          111.0825         0.338354   
    117. A(O  31,C  32,H  33)          111.1040         0.338516   
    118. A(H  38,C  36,H  39)          108.0557         0.291056   
    119. A(H  37,C  36,H  39)          108.8427         0.291109   
    120. A(C  24,C  36,H  39)          109.8702         0.330981   
    121. A(H  37,C  36,H  38)          109.3000         0.291679   
    122. A(C  24,C  36,H  38)          110.4530         0.331664   
    123. A(C  24,C  36,H  37)          110.2708         0.331728   
    124. D(N  10,C   2,S   0,O   1)    -23.3559         0.003756   
    125. D(N   3,C   2,S   0,O   1)    159.6589         0.003756   
    126. D(N   3,C   2,S   0,C  20)    -94.5517         0.003756   
    127. D(N  10,C   2,S   0,C  20)     82.4335         0.003756   
    128. D(C   4,N   3,C   2,N  10)     -1.0089         0.046424   
    129. D(C   4,N   3,C   2,S   0)    176.1048         0.046424   
    130. D(C   9,C   4,N   3,C   2)      0.1369         0.025756   
    131. D(C   5,C   4,N   3,C   2)   -179.1530         0.025756   
    132. D(H  19,C   5,C   4,N   3)     -2.2235         0.026518   
    133. D(C   6,C   5,C   4,C   9)     -1.1640         0.026518   
    134. D(H  19,C   5,C   4,C   9)    178.5464         0.026518   
    135. D(C   6,C   5,C   4,N   3)    178.0661         0.026518   
    136. D(C   7,C   6,C   5,H  19)   -179.1852         0.030991   
    137. D(C   7,C   6,C   5,C   4)      0.5231         0.030991   
    138. D(H  18,C   6,C   5,C   4)   -179.7135         0.030991   
    139. D(H  18,C   6,C   5,H  19)      0.5782         0.030991   
    140. D(O  13,C   7,C   6,H  18)      0.6666         0.023240   
    141. D(O  13,C   7,C   6,C   5)   -179.5613         0.023240   
    142. D(C   8,C   7,C   6,H  18)   -179.3005         0.023240   
    143. D(C   8,C   7,C   6,C   5)      0.4717         0.023240   
    144. D(H  12,C   8,C   7,O  13)     -0.3259         0.030531   
    145. D(H  12,C   8,C   7,C   6)    179.6378         0.030531   
    146. D(C   9,C   8,C   7,O  13)    179.2709         0.030531   
    147. D(C   9,C   8,C   7,C   6)     -0.7655         0.030531   
    148. D(C   4,C   9,C   8,H  12)    179.7083         0.030050   
    149. D(C   4,C   9,C   8,C   7)      0.1012         0.030050   
    150. D(N  10,C   9,C   4,C   5)   -179.8861         0.022301   
    151. D(N  10,C   9,C   4,N   3)      0.7313         0.022301   
    152. D(C   8,C   9,C   4,C   5)      0.8844         0.022301   
    153. D(N  10,C   9,C   8,C   7)   -178.8970         0.030050   
    154. D(C   8,C   9,C   4,N   3)   -178.4982         0.022301   
    155. D(N  10,C   9,C   8,H  12)      0.7101         0.030050   
    156. D(H  11,N  10,C   9,C   8)     -0.0814         0.030125   
    157. D(C   2,N  10,C   9,C   8)    177.8573         0.030125   
    158. D(H  11,N  10,C   2,N   3)    179.5635         0.031703   
    159. D(H  11,N  10,C   2,S   0)      2.2011         0.031703   
    160. D(C   9,N  10,C   2,N   3)      1.4982         0.031703   
    161. D(H  11,N  10,C   9,C   4)   -179.2085         0.030125   
    162. D(C   9,N  10,C   2,S   0)   -175.8642         0.031703   
    163. D(C   2,N  10,C   9,C   4)     -1.2698         0.030125   
    164. D(C  14,O  13,C   7,C   8)      0.6959         0.028309   
    165. D(C  14,O  13,C   7,C   6)   -179.2698         0.028309   
    166. D(H  17,C  14,O  13,C   7)     61.0601         0.021991   
    167. D(H  16,C  14,O  13,C   7)    179.7184         0.021991   
    168. D(H  15,C  14,O  13,C   7)    -61.6041         0.021991   
    169. D(H  42,C  20,S   0,O   1)      8.0459         0.002716   
    170. D(H  41,C  20,S   0,C   2)    146.2708         0.002716   
    171. D(H  41,C  20,S   0,O   1)   -108.8402         0.002716   
    172. D(C  21,C  20,S   0,C   2)     22.8807         0.002716   
    173. D(C  21,C  20,S   0,O   1)    127.7698         0.002716   
    174. D(C  26,C  21,C  20,H  41)    -43.7870         0.014458   
    175. D(C  26,C  21,C  20,S   0)     75.0117         0.014458   
    176. D(N  22,C  21,C  20,H  42)     15.9521         0.014458   
    177. D(N  22,C  21,C  20,H  41)    141.0685         0.014458   
    178. D(N  22,C  21,C  20,S   0)   -100.1329         0.014458   
    179. D(C  23,N  22,C  21,C  26)     -0.0285         0.036910   
    180. D(C  23,N  22,C  21,C  20)    175.0567         0.036910   
    181. D(H  40,C  23,N  22,C  21)    179.9551         0.040167   
    182. D(C  24,C  23,N  22,C  21)     -1.1545         0.040167   
    183. D(C  36,C  24,C  23,H  40)      1.0598         0.027541   
    184. D(C  36,C  24,C  23,N  22)   -177.7773         0.027541   
    185. D(C  25,C  24,C  23,H  40)   -179.9181         0.027541   
    186. D(C  25,C  24,C  23,N  22)      1.2448         0.027541   
    187. D(O  31,C  25,C  24,C  36)     -1.9379         0.025475   
    188. D(O  31,C  25,C  24,C  23)    179.0456         0.025475   
    189. D(C  26,C  25,C  24,C  36)    178.8404         0.025475   
    190. D(C  26,C  25,C  24,C  23)     -0.1761         0.025475   
    191. D(C  27,C  26,C  25,C  24)   -178.6322         0.025806   
    192. D(C  21,C  26,C  25,O  31)    179.9078         0.025806   
    193. D(C  21,C  26,C  25,C  24)     -0.8623         0.025806   
    194. D(C  27,C  26,C  21,N  22)    178.7580         0.025545   
    195. D(C  27,C  26,C  21,C  20)      3.9874         0.025545   
    196. D(C  25,C  26,C  21,N  22)      1.0081         0.025545   
    197. D(C  27,C  26,C  25,O  31)      2.1379         0.025806   
    198. D(C  25,C  26,C  21,C  20)   -173.7625         0.025545   
    199. D(H  30,C  27,C  26,C  21)     50.0713         0.013283   
    200. D(H  29,C  27,C  26,C  25)    -12.2024         0.013283   
    201. D(H  29,C  27,C  26,C  21)    170.1307         0.013283   
    202. D(H  28,C  27,C  26,C  25)    107.6988         0.013283   
    203. D(H  28,C  27,C  26,C  21)    -69.9680         0.013283   
    204. D(C  32,O  31,C  25,C  26)    -93.1015         0.024408   
    205. D(C  32,O  31,C  25,C  24)     87.6709         0.024408   
    206. D(H  35,C  32,O  31,C  25)    169.2684         0.020523   
    207. D(H  34,C  32,O  31,C  25)    -71.8230         0.020523   
    208. D(H  33,C  32,O  31,C  25)     49.6950         0.020523   
    209. D(H  39,C  36,C  24,C  23)     83.4655         0.013302   
    210. D(H  38,C  36,C  24,C  25)    145.3811         0.013302   
    211. D(H  38,C  36,C  24,C  23)    -35.6467         0.013302   
    212. D(H  37,C  36,C  24,C  25)     24.4649         0.013302   
    213. D(H  37,C  36,C  24,C  23)   -156.5630         0.013302   
    -----------------------------------------------------------------

Number of atoms                         .... 43
Number of degrees of freedom            .... 213


         *************************************************************
         *                GEOMETRY OPTIMIZATION CYCLE   1            *
         *************************************************************
---------------------------------
CARTESIAN COORDINATES (ANGSTROEM)
---------------------------------
  S     -2.417813    2.232527    0.473586
  O     -2.140106    3.578965   -0.035416
  C     -0.777833    1.524273    0.686289
  N     -0.454778    0.513565    1.437534
  C      0.880740    0.303888    1.193878
  C      1.761105   -0.648991    1.699854
  C      3.052561   -0.638114    1.234975
  C      3.502731    0.301624    0.285751
  C      2.649621    1.271028   -0.215277
  C      1.343582    1.252610    0.251721
  N      0.257246    2.029378   -0.036549
  H      0.180814    2.806672   -0.672702
  H      2.961285    2.008020   -0.936947
  O      4.809220    0.163687   -0.072106
  C      5.349482    1.068718   -1.003615
  H      4.835215    1.007506   -1.968275
  H      6.389860    0.774461   -1.131494
  H      5.307959    2.098304   -0.633779
  H      3.774015   -1.357048    1.590225
  H      1.434592   -1.365496    2.435386
  C     -2.808965    1.218588   -1.075698
  C     -1.982969   -0.012600   -1.135354
  N     -0.925680    0.053421   -1.936759
  C     -0.086289   -0.961982   -1.970860
  C     -0.220371   -2.106174   -1.197301
  C     -1.335729   -2.171747   -0.357598
  C     -2.249067   -1.116628   -0.321259
  C     -3.432236   -1.154641    0.592732
  H     -3.288801   -0.453163    1.413983
  H     -3.550604   -2.155905    0.997994
  H     -4.343378   -0.884361    0.062098
  O     -1.553748   -3.284192    0.430361
  C     -0.911578   -3.220501    1.690422
  H     -1.119297   -2.270160    2.190772
  H      0.171695   -3.339357    1.586766
  H     -1.313277   -4.046060    2.276112
  C      0.795359   -3.202470   -1.247945
  H      0.351025   -4.142678   -0.930300
  H      1.186061   -3.312289   -2.257052
  H      1.629834   -2.965723   -0.586135
  H      0.754248   -0.848508   -2.643402
  H     -3.876867    1.020018   -1.032336
  H     -2.574911    1.880838   -1.906692

----------------------------
CARTESIAN COORDINATES (A.U.)
----------------------------
  NO LB      ZA    FRAG     MASS         X           Y           Z
   0 S    16.0000    0    32.060   -4.569005    4.218864    0.894948
   1 O     8.0000    0    15.999   -4.044215    6.763263   -0.066927
   2 C     6.0000    0    12.011   -1.469892    2.880458    1.296898
   3 N     7.0000    0    14.007   -0.859406    0.970497    2.716545
   4 C     6.0000    0    12.011    1.664357    0.574265    2.256102
   5 C     6.0000    0    12.011    3.328006   -1.226415    3.212258
   6 C     6.0000    0    12.011    5.768504   -1.205860    2.333764
   7 C     6.0000    0    12.011    6.619202    0.569987    0.539991
   8 C     6.0000    0    12.011    5.007058    2.401895   -0.406815
   9 C     6.0000    0    12.011    2.539002    2.367090    0.475684
  10 N     7.0000    0    14.007    0.486124    3.834969   -0.069068
  11 H     1.0000    0     1.008    0.341688    5.303841   -1.271223
  12 H     1.0000    0     1.008    5.596017    3.794608   -1.770573
  13 O     8.0000    0    15.999    9.088109    0.309324   -0.136261
  14 C     6.0000    0    12.011   10.109056    2.019585   -1.896558
  15 H     1.0000    0     1.008    9.137232    1.903911   -3.719501
  16 H     1.0000    0     1.008   12.075085    1.463520   -2.138214
  17 H     1.0000    0     1.008   10.030588    3.965220   -1.197669
  18 H     1.0000    0     1.008    7.131855   -2.564449    3.005090
  19 H     1.0000    0     1.008    2.710986   -2.580413    4.602212
  20 C     6.0000    0    12.011   -5.308175    2.302797   -2.032775
  21 C     6.0000    0    12.011   -3.747268   -0.023811   -2.145508
  22 N     7.0000    0    14.007   -1.749282    0.100951   -3.659944
  23 C     6.0000    0    12.011   -0.163063   -1.817883   -3.724386
  24 C     6.0000    0    12.011   -0.416441   -3.980092   -2.262571
  25 C     6.0000    0    12.011   -2.524162   -4.104007   -0.675762
  26 C     6.0000    0    12.011   -4.250121   -2.110121   -0.607092
  27 C     6.0000    0    12.011   -6.485986   -2.181956    1.120101
  28 H     1.0000    0     1.008   -6.214933   -0.856354    2.672040
  29 H     1.0000    0     1.008   -6.709669   -4.074070    1.885935
  30 H     1.0000    0     1.008   -8.207795   -1.671201    0.117348
  31 O     8.0000    0    15.999   -2.936158   -6.206224    0.813264
  32 C     6.0000    0    12.011   -1.722633   -6.085865    3.194435
  33 H     1.0000    0     1.008   -2.115165   -4.289981    4.139959
  34 H     1.0000    0     1.008    0.324457   -6.310470    2.998553
  35 H     1.0000    0     1.008   -2.481734   -7.645945    4.301228
  36 C     6.0000    0    12.011    1.503011   -6.051791   -2.358274
  37 H     1.0000    0     1.008    0.663342   -7.828527   -1.758012
  38 H     1.0000    0     1.008    2.241331   -6.259319   -4.265210
  39 H     1.0000    0     1.008    3.079940   -5.604404   -1.107635
  40 H     1.0000    0     1.008    1.425322   -1.603448   -4.995306
  41 H     1.0000    0     1.008   -7.326217    1.927554   -1.950833
  42 H     1.0000    0     1.008   -4.865877    3.554268   -3.603126

--------------------------------
INTERNAL COORDINATES (ANGSTROEM)
--------------------------------
 S      0   0   0     0.000000000000     0.00000000     0.00000000
 O      1   0   0     1.465980730289     0.00000000     0.00000000
 C      1   2   0     1.798999915264   103.29425022     0.00000000
 N      3   1   2     1.300101628451   126.93435694   159.65889363
 C      4   3   1     1.373659717341   104.93685006   176.10484516
 C      5   4   3     1.392491520437   130.89451446   180.84701566
 C      6   5   4     1.372621358443   117.79783564   178.06612912
 C      7   6   5     1.409534227943   122.26597831     0.52309461
 C      8   7   6     1.385124486812   120.89662059     0.47168052
 C      9   8   7     1.387142467114   116.66847995   359.23451419
 N      3   1   2     1.359784678367   119.00132974   336.64413782
 H     11   3   1     1.007332344597   124.37318975     2.20114212
 H      9   8   7     1.077543152767   122.87400081   179.63775972
 O      8   7   6     1.361617330836   114.57566047   180.43873045
 C     14   8   7     1.406653175651   118.51507386   180.73017857
 H     15  14   8     1.094891031956   111.53565209   298.39591784
 H     15  14   8     1.088727056501   105.71831671   179.71838758
 H     15  14   8     1.094783155616   111.51854570    61.06011091
 H      7   6   5     1.078686485019   120.82761698   180.28646269
 H      6   5   4     1.077495929145   120.76365673   357.77647586
 C      1   2   3     1.892446325700   104.29991773   262.01029256
 C     21   1   2     1.483796523048   111.24903023   127.76979651
 N     22  21   1     1.328333081747   115.22056553   259.86712719
 C     23  22  21     1.317870775662   118.96542179   175.05674682
 C     24  23  22     1.387640746743   124.01043602   358.84553607
 C     25  24  23     1.397649603711   116.78972099     1.24482033
 C     26  25  24     1.395988155134   120.15183595   359.82390368
 C     27  26  25     1.495564581947   120.95028915   181.36776772
 H     28  27  26     1.089540356561   109.88511437   107.69881502
 H     28  27  26     1.086636033760   109.72588335   347.79759923
 H     28  27  26     1.088486777439   110.97655674   227.73813453
 O     26  25  24     1.380559867642   120.44666943   179.04563505
 C     32  26  25     1.415695085825   113.58578115    87.67089418
 H     33  32  26     1.093912849268   111.10399686    49.69503928
 H     33  32  26     1.094692517347   111.08245121   288.17701275
 H     33  32  26     1.089009882989   106.09720546   169.26836213
 C     25  24  23     1.495371915996   121.33178600   182.22265918
 H     37  25  24     1.087346372053   110.27081541   203.43702773
 H     37  25  24     1.087660426339   110.45299181   324.35327015
 H     37  25  24     1.091050018905   109.87019391    83.46553967
 H     24  23  22     1.082447014315   115.46070191   179.95505915
 H     21   1   2     1.087071749912   105.56071404   251.15984578
 H     21   1   2     1.088075073432   104.75451795     8.04586816

---------------------------
INTERNAL COORDINATES (A.U.)
---------------------------
 S      0   0   0     0.000000000000     0.00000000     0.00000000
 O      1   0   0     2.770302097852     0.00000000     0.00000000
 C      1   2   0     3.399617154797   103.29425022     0.00000000
 N      3   1   2     2.456836024038   126.93435694   159.65889363
 C      4   3   1     2.595840666975   104.93685006   176.10484516
 C      5   4   3     2.631427617433   130.89451446   180.84701566
 C      6   5   4     2.593878453028   117.79783564   178.06612912
 C      7   6   5     2.663633667201   122.26597831     0.52309461
 C      8   7   6     2.617505941464   120.89662059     0.47168052
 C      9   8   7     2.621319371577   116.66847995   359.23451419
 N      3   1   2     2.569620643216   119.00132974   336.64413782
 H     11   3   1     1.903582257129   124.37318975     2.20114212
 H      9   8   7     2.036261456211   122.87400081   179.63775972
 O      8   7   6     2.573083854482   114.57566047   180.43873045
 C     14   8   7     2.658189267392   118.51507386   180.73017857
 H     15  14   8     2.069044196884   111.53565209   298.39591784
 H     15  14   8     2.057395971378   105.71831671   179.71838758
 H     15  14   8     2.068840340144   111.51854570    61.06011091
 H      7   6   5     2.038422041047   120.82761698   180.28646269
 H      6   5   4     2.036172216500   120.76365673   357.77647586
 C      1   2   3     3.576205278719   104.29991773   262.01029256
 C     21   1   2     2.803969067025   111.24903023   127.76979651
 N     22  21   1     2.510185739129   115.22056553   259.86712719
 C     23  22  21     2.490414845900   118.96542179   175.05674682
 C     24  23  22     2.622260983614   124.01043602   358.84553607
 C     25  24  23     2.641174982198   116.78972099     1.24482033
 C     26  25  24     2.638035299401   120.15183595   359.82390368
 C     27  26  25     2.826207475472   120.95028915   181.36776772
 H     28  27  26     2.058932885754   109.88511437   107.69881502
 H     28  27  26     2.053444511058   109.72588335   347.79759923
 H     28  27  26     2.056941909754   110.97655674   227.73813453
 O     26  25  24     2.608880061326   120.44666943   179.04563505
 C     32  26  25     2.675276001347   113.58578115    87.67089418
 H     33  32  26     2.067195699493   111.10399686    49.69503928
 H     33  32  26     2.068669058639   111.08245121   288.17701275
 H     33  32  26     2.057930435983   106.09720546   169.26836213
 C     25  24  23     2.825843389590   121.33178600   182.22265918
 H     37  25  24     2.054786855893   110.27081541   203.43702773
 H     37  25  24     2.055380332484   110.45299181   324.35327015
 H     37  25  24     2.061785734140   109.87019391    83.46553967
 H     24  23  22     2.045528411536   115.46070191   179.95505915
 H     21   1   2     2.054267895256   105.56071404   251.15984578
 H     21   1   2     2.056163901933   104.75451795     8.04586816

---------------------
BASIS SET INFORMATION
---------------------
There are 5 groups of distinct atoms

 Group   1 Type S   : 14s9p1d contracted to 5s4p1d pattern {73211/6111/1}
 Group   2 Type O   : 11s6p2d contracted to 5s3p2d pattern {62111/411/11}
 Group   3 Type C   : 11s6p1d contracted to 5s3p1d pattern {62111/411/1}
 Group   4 Type N   : 11s6p1d contracted to 5s3p1d pattern {62111/411/1}
 Group   5 Type H   : 5s contracted to 3s pattern {311}

Atom   0S    basis set group =>   1
Atom   1O    basis set group =>   2
Atom   2C    basis set group =>   3
Atom   3N    basis set group =>   4
Atom   4C    basis set group =>   3
Atom   5C    basis set group =>   3
Atom   6C    basis set group =>   3
Atom   7C    basis set group =>   3
Atom   8C    basis set group =>   3
Atom   9C    basis set group =>   3
Atom  10N    basis set group =>   4
Atom  11H    basis set group =>   5
Atom  12H    basis set group =>   5
Atom  13O    basis set group =>   2
Atom  14C    basis set group =>   3
Atom  15H    basis set group =>   5
Atom  16H    basis set group =>   5
Atom  17H    basis set group =>   5
Atom  18H    basis set group =>   5
Atom  19H    basis set group =>   5
Atom  20C    basis set group =>   3
Atom  21C    basis set group =>   3
Atom  22N    basis set group =>   4
Atom  23C    basis set group =>   3
Atom  24C    basis set group =>   3
Atom  25C    basis set group =>   3
Atom  26C    basis set group =>   3
Atom  27C    basis set group =>   3
Atom  28H    basis set group =>   5
Atom  29H    basis set group =>   5
Atom  30H    basis set group =>   5
Atom  31O    basis set group =>   2
Atom  32C    basis set group =>   3
Atom  33H    basis set group =>   5
Atom  34H    basis set group =>   5
Atom  35H    basis set group =>   5
Atom  36C    basis set group =>   3
Atom  37H    basis set group =>   5
Atom  38H    basis set group =>   5
Atom  39H    basis set group =>   5
Atom  40H    basis set group =>   5
Atom  41H    basis set group =>   5
Atom  42H    basis set group =>   5
---------------------------------
AUXILIARY/J BASIS SET INFORMATION
---------------------------------
There are 5 groups of distinct atoms

 Group   1 Type S   : 14s5p5d2f1g contracted to 8s4p3d1f1g pattern {71111111/2111/311/2/1}
 Group   2 Type O   : 8s3p3d contracted to 6s3p3d pattern {311111/111/111}
 Group   3 Type C   : 8s3p3d contracted to 6s3p3d pattern {311111/111/111}
 Group   4 Type N   : 8s3p3d contracted to 6s3p3d pattern {311111/111/111}
 Group   5 Type H   : 5s2p contracted to 3s1p pattern {311/2}

Atom   0S    basis set group =>   1
Atom   1O    basis set group =>   2
Atom   2C    basis set group =>   3
Atom   3N    basis set group =>   4
Atom   4C    basis set group =>   3
Atom   5C    basis set group =>   3
Atom   6C    basis set group =>   3
Atom   7C    basis set group =>   3
Atom   8C    basis set group =>   3
Atom   9C    basis set group =>   3
Atom  10N    basis set group =>   4
Atom  11H    basis set group =>   5
Atom  12H    basis set group =>   5
Atom  13O    basis set group =>   2
Atom  14C    basis set group =>   3
Atom  15H    basis set group =>   5
Atom  16H    basis set group =>   5
Atom  17H    basis set group =>   5
Atom  18H    basis set group =>   5
Atom  19H    basis set group =>   5
Atom  20C    basis set group =>   3
Atom  21C    basis set group =>   3
Atom  22N    basis set group =>   4
Atom  23C    basis set group =>   3
Atom  24C    basis set group =>   3
Atom  25C    basis set group =>   3
Atom  26C    basis set group =>   3
Atom  27C    basis set group =>   3
Atom  28H    basis set group =>   5
Atom  29H    basis set group =>   5
Atom  30H    basis set group =>   5
Atom  31O    basis set group =>   2
Atom  32C    basis set group =>   3
Atom  33H    basis set group =>   5
Atom  34H    basis set group =>   5
Atom  35H    basis set group =>   5
Atom  36C    basis set group =>   3
Atom  37H    basis set group =>   5
Atom  38H    basis set group =>   5
Atom  39H    basis set group =>   5
Atom  40H    basis set group =>   5
Atom  41H    basis set group =>   5
Atom  42H    basis set group =>   5


           ************************************************************
           *        Program running with 16 parallel MPI-processes    *
           *              working on a common directory               *
           ************************************************************
------------------------------------------------------------------------------
                             ORCA STARTUP CALCULATIONS
                           -- RI-GTO INTEGRALS CHOSEN --
------------------------------------------------------------------------------
------------------------------------------------------------------------------
                   ___                                                        
                  /   \      - P O W E R E D   B Y -                         
                 /     \                                                     
                 |  |  |   _    _      __       _____    __    __             
                 |  |  |  | |  | |    /  \     |  _  \  |  |  /  |          
                  \  \/   | |  | |   /    \    | | | |  |  | /  /          
                 / \  \   | |__| |  /  /\  \   | |_| |  |  |/  /          
                |  |  |   |  __  | /  /__\  \  |    /   |      \           
                |  |  |   | |  | | |   __   |  |    \   |  |\   \          
                \     /   | |  | | |  |  |  |  | |\  \  |  | \   \       
                 \___/    |_|  |_| |__|  |__|  |_| \__\ |__|  \__/        
                                                                              
                      - O R C A' S   B I G   F R I E N D -                    
                                      &                                       
                       - I N T E G R A L  F E E D E R -                       
                                                                              
 v1 FN, 2020, v2 2021, v3 2022-2024                                           
------------------------------------------------------------------------------


----------------------
SHARK INTEGRAL PACKAGE
----------------------

Number of atoms                             ...     43
Number of basis functions                   ...    531
Number of shells                            ...    277
Maximum angular momentum                    ...      2
Integral batch strategy                     ... SHARK/LIBINT Hybrid
RI-J (if used) integral strategy            ... SPLIT-RIJ (Revised 2003 algorithm where possible)
Printlevel                                  ...      1
Contraction scheme used                     ... SEGMENTED contraction
Prescreening option                         ... SCHWARTZ
   Thresh                                   ... 2.500e-11
   Tcut                                     ... 2.500e-12
   Tpresel                                  ... 2.500e-12 
Coulomb Range Separation                    ... NOT USED
Exchange Range Separation                   ... NOT USED
Multipole approximations                    ... NOT USED
Finite Nucleus Model                        ... NOT USED
CABS basis                                  ... NOT available
Auxiliary Coulomb fitting basis             ... AVAILABLE
   # of basis functions in Aux-J            ...    855
   # of shells in Aux-J                     ...    369
   Maximum angular momentum in Aux-J        ...      4
Auxiliary J/K fitting basis                 ... NOT available
Auxiliary Correlation fitting basis         ... NOT available
Auxiliary 'external' fitting basis          ... NOT available

Checking pre-screening integrals            ... done (  0.0 sec) Dimension = 277
Check shell pair data                       ... done (  0.0 sec)
Shell pair information
Shell pair cut-off parameter TPreSel        ...   2.5e-12
Total number of shell pairs                 ...     38503
Shell pairs after pre-screening             ...     29370
Total number of primitive shell pairs       ...    144519
Primitive shell pairs kept                  ...     68159
          la=0 lb=0:  11117 shell pairs
          la=1 lb=0:  10511 shell pairs
          la=1 lb=1:   2439 shell pairs
          la=2 lb=0:   3351 shell pairs
          la=2 lb=1:   1663 shell pairs
          la=2 lb=2:    289 shell pairs

Calculating one electron integrals          ... done (  0.1 sec)
Calculating RI/J V-Matrix + Cholesky decomp.... done (  0.1 sec)
Calculating Nuclear repulsion               ... done (  0.0 sec) ENN=   2382.448731229737 Eh

Diagonalization of the overlap matrix:
Smallest eigenvalue                        ... 7.251e-06
Time for diagonalization                   ...    0.046 sec
Threshold for overlap eigenvalues          ... 1.000e-07
Number of eigenvalues below threshold      ... 0
Time for construction of square roots      ...    0.018 sec
Total time needed                          ...    0.066 sec

-------------------
DFT GRID GENERATION
-------------------

General Integration Accuracy     IntAcc      ... 4.959
Radial Grid Type                 RadialGrid  ... OptM3 with GC (2021)
Angular Grid (max. ang.)         AngularGrid ... 6 (Lebedev-590)
Angular grid pruning method      GridPruning ... 4 (adaptive)
Weight generation scheme         WeightScheme... mBecke (2022)
Basis function cutoff            BFCut       ... 1.0000e-11
Integration weight cutoff        WCut        ... 1.0000e-14
Partially contracted basis set               ... off
Rotationally invariant grid construction     ... off
Angular grids for H and He will be reduced by one unit
Diffuse basis detected: some atoms will have their outermost
                        angular grid increased by 1.

Total number of grid points                  ...   502942
Total number of batches                      ...     7878
Average number of points per batch           ...       63
Average number of grid points per atom       ...    11696
Initializing property integral containers    ... done (  0.0 sec)

SHARK setup successfully completed in   5.2 seconds

Maximum memory used throughout the entire STARTUP-calculation: 125.4 MB


           ************************************************************
           *        Program running with 16 parallel MPI-processes    *
           *              working on a common directory               *
           ************************************************************
-------------------------------------------------------------------------------
                                 ORCA GUESS
                   Start orbitals & Density for SCF / CASSCF
-------------------------------------------------------------------------------

------------
SCF SETTINGS
------------
Hamiltonian:
 Density Functional     Method          .... DFT(GTOs)
 Exchange Functional    Exchange        .... B973C
 Correlation Functional Correlation     .... B973C
 Gradients option       PostSCFGGA      .... off
 RI-approximation to the Coulomb term is turned on
   Number of AuxJ basis functions       .... 855


General Settings:
 Integral files         IntName         .... m1_00_Esomeprazole-GitHubGFN2-B97-3C-TZ
 Hartree-Fock type      HFTyp           .... RHF
 Total Charge           Charge          ....    0
 Multiplicity           Mult            ....    1
 Number of Electrons    NEL             ....  182
 Basis Dimension        Dim             ....  531
 Nuclear Repulsion      ENuc            ....   2382.4487312297 Eh

Convergence Acceleration:
 AO-DIIS                CNVDIIS         .... on
   Start iteration      DIISMaxIt       ....    12
   Startup error        DIISStart       ....  0.200000
   # of expansion vecs  DIISMaxEq       ....     5
   Bias factor          DIISBfac        ....   1.050
   Max. coefficient     DIISMaxC        ....  10.000
 MO-DIIS                CNVKDIIS        .... off
 Trust-Rad. Augm. Hess. CNVTRAH         .... off
 SOSCF                  CNVSOSCF        .... on
   Start iteration      SOSCFMaxIt      ....   150
   Startup grad/error   SOSCFStart      ....  0.003300
   Hessian update       SOSCFHessUp     .... L-BFGS
 Level Shifting         CNVShift        .... on
   Level shift para.    LevelShift      ....    0.2500
   Turn off err/grad.   ShiftErr        ....    0.0010
 Zerner damping         CNVZerner       .... off
 Static damping         CNVDamp         .... on
   Fraction old density DampFac         ....    0.7000
   Max. Damping (<1)    DampMax         ....    0.9800
   Min. Damping (>=0)   DampMin         ....    0.0000
   Turn off err/grad.   DampErr         ....    0.1000

SCF Procedure:
 Maximum # iterations   MaxIter         ....   800
 SCF integral mode      SCFMode         .... Direct
   Integral package                     .... SHARK and LIBINT hybrid scheme
 Reset frequency        DirectResetFreq ....    20
 Integral Threshold     Thresh          ....  2.500e-11 Eh
 Primitive CutOff       TCut            ....  2.500e-12 Eh

Convergence Tolerance:
 Convergence Check Mode ConvCheckMode   .... Total+1el-Energy
 Convergence forced     ConvForced      .... 0
 Energy Change          TolE            ....  1.000e-08 Eh
 1-El. energy change                    ....  1.000e-05 Eh
 Orbital Gradient       TolG            ....  1.000e-05
 Orbital Rotation angle TolX            ....  1.000e-05
 DIIS Error             TolErr          ....  5.000e-07

--------------------------------
INITIAL GUESS: MINIMAL BASIS EHT
--------------------------------
The minimal basis has 143 functions
EHT matrix was diagonalized
Basis set overlap was calculated now projecting the orbitals
Using GuessMode=FMatrix for the initial guess
C*T matrix was formed
Effective Fockian was calculated
Effective Fockian was diagonalized
Initial density was built
                      ------------------
                      INITIAL GUESS DONE
                      ------------------
             **** ENERGY FILE WAS UPDATED (m1_00_Esomeprazole-GitHubGFN2-B97-3C-TZ.en.tmp) ****
Finished Guess after   0.3 sec
Maximum memory used throughout the entire GUESS-calculation: 51.9 MB


           ************************************************************
           *        Program running with 16 parallel MPI-processes    *
           *              working on a common directory               *
           ************************************************************

-------------------------------------------------------------------------------------------
                                      ORCA LEAN-SCF
                              memory conserving SCF solver
-------------------------------------------------------------------------------------------

----------------------------------------D-I-I-S--------------------------------------------
Iteration    Energy (Eh)           Delta-E    RMSDP     MaxDP     DIISErr   Damp  Time(sec)
-------------------------------------------------------------------------------------------
               ***  Starting incremental Fock matrix formation  ***
    1    -1442.4626701950669485     0.00e+00  8.71e-03  8.34e-01  8.24e-01  0.700   1.3
Warning: op=0 Small HOMO/LUMO gap (  -0.048) - skipping pre-diagonalization
         Will do a full diagonalization
    2    -1443.8786672214673672    -1.42e+00  6.60e-03  7.09e-01  5.74e-01  0.700   1.3
    3    -1444.6706763599759142    -7.92e-01  3.07e-03  2.10e-01  3.86e-01  0.700   1.2
    4    -1445.2155171875697306    -5.45e-01  2.10e-03  9.70e-02  2.59e-01  0.700   1.2
                               ***Turning on AO-DIIS***
    5    -1445.6013589628014415    -3.86e-01  2.04e-03  1.47e-01  1.74e-01  0.700   1.2
    6    -1445.8696750649132809    -2.68e-01  1.39e-03  9.21e-02  1.22e-01  0.700   1.2
    7    -1446.0584165806899364    -1.89e-01  8.53e-04  5.05e-02  8.64e-02  0.700   1.2
    8    -1446.1911444306633712    -1.33e-01  1.97e-03  1.22e-01  6.09e-02  0.000   1.2
    9    -1446.5002334055952815    -3.09e-01  4.28e-04  2.22e-02  1.40e-02  0.000   1.3
   10    -1446.5006257887953325    -3.92e-04  1.34e-04  1.46e-02  1.30e-02  0.000   1.2
                              *** Initializing SOSCF ***
---------------------------------------S-O-S-C-F--------------------------------------
Iteration    Energy (Eh)           Delta-E    RMSDP     MaxDP     MaxGrad    Time(sec)
--------------------------------------------------------------------------------------
   11    -1446.5009272113434236    -3.01e-04  4.79e-05  3.80e-03  2.03e-03     1.3
               *** Restarting incremental Fock matrix formation ***
   12    -1446.5009638415949667    -3.66e-05  9.07e-05  5.05e-03  2.39e-04     1.4
   13    -1446.5009447219258618     1.91e-05  5.81e-05  3.32e-03  5.02e-04     1.1
   14    -1446.5009671045263531    -2.24e-05  4.15e-05  4.55e-03  6.77e-05     1.1
   15    -1446.5009651376276452     1.97e-06  1.74e-05  1.95e-03  2.06e-04     1.1
   16    -1446.5009676236063569    -2.49e-06  2.78e-05  2.59e-03  4.20e-05     1.1
   17    -1446.5009673294048298     2.94e-07  1.30e-05  8.16e-04  8.28e-05     1.1
   18    -1446.5009676850208962    -3.56e-07  1.21e-05  1.32e-03  6.79e-06     1.1
   19    -1446.5009676587246759     2.63e-08  8.14e-06  8.83e-04  1.56e-05     1.1
   20    -1446.5009677042949079    -4.56e-08  2.17e-05  1.89e-03  3.57e-06     1.1
   21    -1446.5009677134999038    -9.20e-09  4.70e-06  4.29e-04  7.59e-06     1.1
                 **** Energy Check signals convergence ****

               *****************************************************
               *                     SUCCESS                       *
               *           SCF CONVERGED AFTER  21 CYCLES          *
               *****************************************************

             **** ENERGY FILE WAS UPDATED (m1_00_Esomeprazole-GitHubGFN2-B97-3C-TZ.en.tmp) ****

----------------
TOTAL SCF ENERGY
----------------

Total Energy       :      -1446.50096771349990 Eh          -39361.29242 eV

Components:
Nuclear Repulsion  :       2382.44873122973695 Eh           64829.72586 eV
Electronic Energy  :      -3828.94969894323685 Eh         -104191.01828 eV
One Electron Energy:      -6715.52495494958202 Eh         -182738.72428 eV
Two Electron Energy:       2886.57525600634517 Eh           78547.70600 eV

Virial components:
Potential Energy   :      -2888.81665803410715 Eh          -78608.69765 eV
Kinetic Energy     :       1442.31569032060725 Eh           39247.40523 eV
Virial Ratio       :          2.00290177623455

DFT components:
N(Alpha)           :       90.999983165710 electrons
N(Beta)            :       90.999983165710 electrons
N(Total)           :      181.999966331419 electrons
E(XC)              :     -170.902346598225 Eh       

---------------
SCF CONVERGENCE
---------------

  Last Energy change         ...    9.2050e-09  Tolerance :   1.0000e-08
  Last MAX-Density change    ...    4.2918e-04  Tolerance :   1.0000e-07
  Last RMS-Density change    ...    4.6956e-06  Tolerance :   5.0000e-09
  Last DIIS Error            ...    2.0282e-03  Tolerance :   5.0000e-07
  Last Orbital Gradient      ...    7.5882e-06  Tolerance :   1.0000e-05
  Last Orbital Rotation      ...    1.3775e-05  Tolerance :   1.0000e-05


----------------
ORBITAL ENERGIES
----------------

  NO   OCC          E(Eh)            E(eV) 
   0   2.0000     -88.140169     -2398.4159 
   1   2.0000     -18.785600      -511.1822 
   2   2.0000     -18.767997      -510.7032 
   3   2.0000     -18.716110      -509.2912 
   4   2.0000     -14.048838      -382.2883 
   5   2.0000     -13.982924      -380.4947 
   6   2.0000     -13.976097      -380.3089 
   7   2.0000      -9.968403      -271.2540 
   8   2.0000      -9.960260      -271.0325 
   9   2.0000      -9.953674      -270.8532 
  10   2.0000      -9.951913      -270.8053 
  11   2.0000      -9.940337      -270.4903 
  12   2.0000      -9.938695      -270.4456 
  13   2.0000      -9.930259      -270.2161 
  14   2.0000      -9.922124      -269.9947 
  15   2.0000      -9.917919      -269.8803 
  16   2.0000      -9.916919      -269.8531 
  17   2.0000      -9.907012      -269.5835 
  18   2.0000      -9.904568      -269.5170 
  19   2.0000      -9.903720      -269.4939 
  20   2.0000      -9.901583      -269.4358 
  21   2.0000      -9.894806      -269.2514 
  22   2.0000      -9.890251      -269.1274 
  23   2.0000      -9.889529      -269.1078 
  24   2.0000      -7.821051      -212.8216 
  25   2.0000      -5.850915      -159.2115 
  26   2.0000      -5.849429      -159.1710 
  27   2.0000      -5.842117      -158.9721 
  28   2.0000      -0.997169       -27.1343 
  29   2.0000      -0.980587       -26.6831 
  30   2.0000      -0.970912       -26.4198 
  31   2.0000      -0.949621       -25.8405 
  32   2.0000      -0.874956       -23.8088 
  33   2.0000      -0.823959       -22.4211 
  34   2.0000      -0.787506       -21.4291 
  35   2.0000      -0.749736       -20.4014 
  36   2.0000      -0.746348       -20.3092 
  37   2.0000      -0.711139       -19.3511 
  38   2.0000      -0.693790       -18.8790 
  39   2.0000      -0.692082       -18.8325 
  40   2.0000      -0.658707       -17.9243 
  41   2.0000      -0.655954       -17.8494 
  42   2.0000      -0.630761       -17.1639 
  43   2.0000      -0.624054       -16.9814 
  44   2.0000      -0.598918       -16.2974 
  45   2.0000      -0.584574       -15.9071 
  46   2.0000      -0.558395       -15.1947 
  47   2.0000      -0.549273       -14.9465 
  48   2.0000      -0.544024       -14.8036 
  49   2.0000      -0.530131       -14.4256 
  50   2.0000      -0.511056       -13.9065 
  51   2.0000      -0.481516       -13.1027 
  52   2.0000      -0.479183       -13.0392 
  53   2.0000      -0.468921       -12.7600 
  54   2.0000      -0.462530       -12.5861 
  55   2.0000      -0.438940       -11.9442 
  56   2.0000      -0.431945       -11.7538 
  57   2.0000      -0.429434       -11.6855 
  58   2.0000      -0.420510       -11.4427 
  59   2.0000      -0.420011       -11.4291 
  60   2.0000      -0.408484       -11.1154 
  61   2.0000      -0.405545       -11.0354 
  62   2.0000      -0.397766       -10.8238 
  63   2.0000      -0.393307       -10.7024 
  64   2.0000      -0.387815       -10.5530 
  65   2.0000      -0.384774       -10.4702 
  66   2.0000      -0.381897       -10.3919 
  67   2.0000      -0.378281       -10.2936 
  68   2.0000      -0.375294       -10.2123 
  69   2.0000      -0.368442       -10.0258 
  70   2.0000      -0.363702        -9.8968 
  71   2.0000      -0.357307        -9.7228 
  72   2.0000      -0.347139        -9.4461 
  73   2.0000      -0.340656        -9.2697 
  74   2.0000      -0.335449        -9.1280 
  75   2.0000      -0.333185        -9.0664 
  76   2.0000      -0.331863        -9.0304 
  77   2.0000      -0.319866        -8.7040 
  78   2.0000      -0.311058        -8.4643 
  79   2.0000      -0.302741        -8.2380 
  80   2.0000      -0.290184        -7.8963 
  81   2.0000      -0.273544        -7.4435 
  82   2.0000      -0.257573        -7.0089 
  83   2.0000      -0.244528        -6.6539 
  84   2.0000      -0.236701        -6.4409 
  85   2.0000      -0.234662        -6.3855 
  86   2.0000      -0.226272        -6.1572 
  87   2.0000      -0.217950        -5.9307 
  88   2.0000      -0.211008        -5.7418 
  89   2.0000      -0.199781        -5.4363 
  90   2.0000      -0.188849        -5.1388 
  91   0.0000      -0.059342        -1.6148 
  92   0.0000      -0.054152        -1.4735 
  93   0.0000      -0.046629        -1.2688 
  94   0.0000      -0.022431        -0.6104 
  95   0.0000      -0.012089        -0.3290 
  96   0.0000      -0.002424        -0.0660 
  97   0.0000       0.019073         0.5190 
  98   0.0000       0.024166         0.6576 
  99   0.0000       0.029995         0.8162 
 100   0.0000       0.035982         0.9791 
 101   0.0000       0.039679         1.0797 
*Only the first 10 virtual orbitals were printed.

                    ********************************
                    * MULLIKEN POPULATION ANALYSIS *
                    ********************************

-----------------------
MULLIKEN ATOMIC CHARGES
-----------------------
   0 S :    0.588444
   1 O :   -0.554850
   2 C :   -0.068804
   3 N :   -0.070874
   4 C :    0.021294
   5 C :   -0.184967
   6 C :   -0.245966
   7 C :    0.171875
   8 C :   -0.378921
   9 C :    0.167925
  10 N :   -0.242648
  11 H :    0.366215
  12 H :    0.214071
  13 O :   -0.205460
  14 C :   -0.425272
  15 H :    0.175686
  16 H :    0.198564
  17 H :    0.177986
  18 H :    0.166925
  19 H :    0.174667
  20 C :   -0.556442
  21 C :    0.057170
  22 N :   -0.039134
  23 C :   -0.139721
  24 C :    0.066581
  25 C :    0.068924
  26 C :    0.152939
  27 C :   -0.636890
  28 H :    0.187446
  29 H :    0.205622
  30 H :    0.176207
  31 O :   -0.253865
  32 C :   -0.356877
  33 H :    0.186967
  34 H :    0.160531
  35 H :    0.180621
  36 C :   -0.649220
  37 H :    0.200632
  38 H :    0.177538
  39 H :    0.190350
  40 H :    0.146287
  41 H :    0.202894
  42 H :    0.225548
Sum of atomic charges:   -0.0000000

--------------------------------
MULLIKEN REDUCED ORBITAL CHARGES
--------------------------------
  0 S s       :     5.821417  s :     5.821417
      pz      :     3.238216  p :     9.268838
      px      :     3.160721
      py      :     2.869902
      dz2     :     0.038241  d :     0.321301
      dxz     :     0.028211
      dyz     :     0.095893
      dx2y2   :     0.055732
      dxy     :     0.103224

  1 O s       :     3.874610  s :     3.874610
      pz      :     1.680822  p :     4.654175
      px      :     1.712111
      py      :     1.261241
      dz2     :     0.004688  d :     0.026065
      dxz     :     0.001186
      dyz     :     0.005979
      dx2y2   :     0.007306
      dxy     :     0.006906

  2 C s       :     3.167617  s :     3.167617
      pz      :     0.998366  p :     2.824735
      px      :     0.854966
      py      :     0.971404
      dz2     :     0.015845  d :     0.076451
      dxz     :     0.016445
      dyz     :     0.009609
      dx2y2   :     0.014416
      dxy     :     0.020136

  3 N s       :     3.488737  s :     3.488737
      pz      :     1.235614  p :     3.532670
      px      :     1.120022
      py      :     1.177034
      dz2     :     0.009014  d :     0.049466
      dxz     :     0.008912
      dyz     :     0.009855
      dx2y2   :     0.014821
      dxy     :     0.006863

  4 C s       :     3.197697  s :     3.197697
      pz      :     0.938344  p :     2.717357
      px      :     0.880867
      py      :     0.898146
      dz2     :     0.008735  d :     0.063652
      dxz     :     0.013761
      dyz     :     0.008218
      dx2y2   :     0.015234
      dxy     :     0.017704

  5 C s       :     3.099345  s :     3.099345
      pz      :     0.996457  p :     3.043390
      px      :     1.013002
      py      :     1.033931
      dz2     :     0.004439  d :     0.042232
      dxz     :     0.010000
      dyz     :     0.007415
      dx2y2   :     0.009346
      dxy     :     0.011032

  6 C s       :     3.140964  s :     3.140964
      pz      :     1.032843  p :     3.065327
      px      :     1.029741
      py      :     1.002743
      dz2     :     0.006548  d :     0.039675
      dxz     :     0.008187
      dyz     :     0.005999
      dx2y2   :     0.007181
      dxy     :     0.011760

  7 C s       :     3.148881  s :     3.148881
      pz      :     0.925942  p :     2.606464
      px      :     0.774851
      py      :     0.905670
      dz2     :     0.010699  d :     0.072781
      dxz     :     0.017124
      dyz     :     0.008516
      dx2y2   :     0.018390
      dxy     :     0.018051

  8 C s       :     2.980743  s :     2.980743
      pz      :     1.109345  p :     3.358475
      px      :     1.140903
      py      :     1.108227
      dz2     :     0.004179  d :     0.039703
      dxz     :     0.008892
      dyz     :     0.007302
      dx2y2   :     0.009712
      dxy     :     0.009617

  9 C s       :     3.143177  s :     3.143177
      pz      :     0.875185  p :     2.625030
      px      :     0.894687
      py      :     0.855158
      dz2     :     0.009480  d :     0.063869
      dxz     :     0.014765
      dyz     :     0.007090
      dx2y2   :     0.014700
      dxy     :     0.017834

 10 N s       :     3.266303  s :     3.266303
      pz      :     1.404207  p :     3.930288
      px      :     1.192279
      py      :     1.333802
      dz2     :     0.004721  d :     0.046057
      dxz     :     0.010154
      dyz     :     0.009569
      dx2y2   :     0.010507
      dxy     :     0.011106

 11 H s       :     0.633785  s :     0.633785

 12 H s       :     0.785929  s :     0.785929

 13 O s       :     3.726592  s :     3.726592
      pz      :     1.558574  p :     4.454400
      px      :     1.297449
      py      :     1.598378
      dz2     :     0.000131  d :     0.024468
      dxz     :     0.003304
      dyz     :     0.004874
      dx2y2   :     0.010454
      dxy     :     0.005704

 14 C s       :     3.310684  s :     3.310684
      pz      :     0.958547  p :     3.056673
      px      :     1.118641
      py      :     0.979485
      dz2     :     0.015622  d :     0.057915
      dxz     :     0.009720
      dyz     :     0.010769
      dx2y2   :     0.015376
      dxy     :     0.006428

 15 H s       :     0.824314  s :     0.824314

 16 H s       :     0.801436  s :     0.801436

 17 H s       :     0.822014  s :     0.822014

 18 H s       :     0.833075  s :     0.833075

 19 H s       :     0.825333  s :     0.825333

 20 C s       :     3.277081  s :     3.277081
      pz      :     1.039198  p :     3.240404
      px      :     1.133844
      py      :     1.067363
      dz2     :     0.007090  d :     0.038957
      dxz     :     0.002905
      dyz     :     0.010920
      dx2y2   :     0.010722
      dxy     :     0.007321

 21 C s       :     3.025372  s :     3.025372
      pz      :     0.979935  p :     2.851343
      px      :     0.910263
      py      :     0.961145
      dz2     :     0.011053  d :     0.066115
      dxz     :     0.010864
      dyz     :     0.012548
      dx2y2   :     0.014536
      dxy     :     0.017114

 22 N s       :     3.419582  s :     3.419582
      pz      :     1.203043  p :     3.572600
      px      :     1.037319
      py      :     1.332238
      dz2     :     0.008257  d :     0.046951
      dxz     :     0.010290
      dyz     :     0.006409
      dx2y2   :     0.010594
      dxy     :     0.011402

 23 C s       :     3.129165  s :     3.129165
      pz      :     1.030527  p :     2.951354
      px      :     0.974347
      py      :     0.946480
      dz2     :     0.006063  d :     0.059202
      dxz     :     0.011418
      dyz     :     0.011249
      dx2y2   :     0.017451
      dxy     :     0.013022

 24 C s       :     3.155224  s :     3.155224
      pz      :     1.024491  p :     2.731187
      px      :     0.868466
      py      :     0.838230
      dz2     :     0.006907  d :     0.047008
      dxz     :     0.009032
      dyz     :     0.008706
      dx2y2   :     0.012471
      dxy     :     0.009892

 25 C s       :     3.125758  s :     3.125758
      pz      :     0.926635  p :     2.733386
      px      :     0.941701
      py      :     0.865050
      dz2     :     0.011899  d :     0.071932
      dxz     :     0.011719
      dyz     :     0.013889
      dx2y2   :     0.017083
      dxy     :     0.017341

 26 C s       :     3.122828  s :     3.122828
      pz      :     0.932732  p :     2.677401
      px      :     0.861176
      py      :     0.883493
      dz2     :     0.007421  d :     0.046833
      dxz     :     0.007567
      dyz     :     0.009437
      dx2y2   :     0.010194
      dxy     :     0.012214

 27 C s       :     3.334889  s :     3.334889
      pz      :     1.071639  p :     3.264209
      px      :     0.999292
      py      :     1.193279
      dz2     :     0.004103  d :     0.037792
      dxz     :     0.010207
      dyz     :     0.009729
      dx2y2   :     0.010559
      dxy     :     0.003193

 28 H s       :     0.812554  s :     0.812554

 29 H s       :     0.794378  s :     0.794378

 30 H s       :     0.823793  s :     0.823793

 31 O s       :     3.708770  s :     3.708770
      pz      :     1.269079  p :     4.512805
      px      :     1.732603
      py      :     1.511124
      dz2     :     0.001317  d :     0.032290
      dxz     :     0.007548
      dyz     :     0.004498
      dx2y2   :     0.009672
      dxy     :     0.009256

 32 C s       :     3.262061  s :     3.262061
      pz      :     0.804706  p :     3.037045
      px      :     1.060417
      py      :     1.171922
      dz2     :     0.013424  d :     0.057770
      dxz     :     0.011184
      dyz     :     0.015638
      dx2y2   :     0.013832
      dxy     :     0.003691

 33 H s       :     0.813033  s :     0.813033

 34 H s       :     0.839469  s :     0.839469

 35 H s       :     0.819379  s :     0.819379

 36 C s       :     3.349720  s :     3.349720
      pz      :     1.132700  p :     3.261693
      px      :     1.074184
      py      :     1.054810
      dz2     :     0.007917  d :     0.037807
      dxz     :     0.009556
      dyz     :     0.003677
      dx2y2   :     0.006931
      dxy     :     0.009725

 37 H s       :     0.799368  s :     0.799368

 38 H s       :     0.822462  s :     0.822462

 39 H s       :     0.809650  s :     0.809650

 40 H s       :     0.853713  s :     0.853713

 41 H s       :     0.797106  s :     0.797106

 42 H s       :     0.774452  s :     0.774452



                     *******************************
                     * LOEWDIN POPULATION ANALYSIS *
                     *******************************

----------------------
LOEWDIN ATOMIC CHARGES
----------------------
   0 S :    1.304431
   1 O :   -1.047465
   2 C :   -0.121440
   3 N :   -0.191825
   4 C :   -0.028761
   5 C :   -0.146245
   6 C :   -0.130424
   7 C :    0.203929
   8 C :   -0.168781
   9 C :    0.018762
  10 N :   -0.164340
  11 H :    0.312087
  12 H :    0.180980
  13 O :   -0.740981
  14 C :   -0.055501
  15 H :    0.170766
  16 H :    0.187894
  17 H :    0.171916
  18 H :    0.182564
  19 H :    0.172863
  20 C :   -0.401657
  21 C :   -0.041791
  22 N :   -0.172471
  23 C :   -0.070827
  24 C :   -0.047798
  25 C :    0.207263
  26 C :   -0.034804
  27 C :   -0.397136
  28 H :    0.170172
  29 H :    0.188925
  30 H :    0.164388
  31 O :   -0.794908
  32 C :   -0.048384
  33 H :    0.180333
  34 H :    0.166154
  35 H :    0.180501
  36 C :   -0.394193
  37 H :    0.180802
  38 H :    0.165669
  39 H :    0.172578
  40 H :    0.157651
  41 H :    0.168281
  42 H :    0.190821

[...]
 77:   1206.69   0.003372   17.04  0.000872  ( 0.023486 -0.016465  0.007018)
 78:   1218.66   0.036511  184.51  0.009349  ( 0.093993  0.001368 -0.022646)
 79:   1239.59   0.003049   15.41  0.000768  ( 0.004088  0.018565 -0.020155)
 80:   1243.53   0.001073    5.42  0.000269  ( 0.002184  0.011403 -0.011596)
 81:   1275.63   0.012320   62.26  0.003014  ( 0.002599  0.038538 -0.039011)
 82:   1283.38   0.001155    5.84  0.000281  (-0.012091  0.008312 -0.008097)
 83:   1307.44   0.001202    6.07  0.000287  (-0.003741  0.015296 -0.006239)
 84:   1321.75   0.000379    1.92  0.000090  (-0.004373  0.004711  0.006944)
 85:   1324.93   0.013538   68.42  0.003189  (-0.047410 -0.019788  0.023440)
 86:   1378.06   0.000365    1.85  0.000083  (-0.008202 -0.003898  0.000528)
 87:   1394.32   0.018610   94.05  0.004165  ( 0.059838  0.016882 -0.017306)
 88:   1406.63   0.001369    6.92  0.000304  (-0.015465  0.005734  0.005619)
 89:   1410.35   0.003744   18.92  0.000828  (-0.011880 -0.006777  0.025327)
 90:   1415.35   0.001908    9.64  0.000421  ( 0.011124 -0.001909 -0.017126)
 91:   1443.48   0.001560    7.89  0.000337  (-0.003106  0.018035 -0.001562)
 92:   1462.09   0.003100   15.67  0.000662  ( 0.018131 -0.014861  0.010591)
 93:   1465.11   0.004863   24.57  0.001036  (-0.015319  0.027963 -0.004369)
 94:   1469.41   0.000954    4.82  0.000203  (-0.012809  0.006211 -0.000172)
 95:   1482.95   0.001906    9.63  0.000401  (-0.002317  0.019886  0.000452)
 96:   1485.98   0.002070   10.46  0.000435  (-0.012430 -0.003935  0.016270)
 97:   1492.38   0.001975    9.98  0.000413  (-0.012153  0.001583 -0.016210)
 98:   1495.10   0.001525    7.71  0.000318  ( 0.005304  0.010328  0.013546)
 99:   1498.78   0.006110   30.88  0.001272  ( 0.030333 -0.004003 -0.018331)
100:   1499.09   0.003753   18.97  0.000781  ( 0.016452  0.022273 -0.003819)
101:   1505.49   0.003946   19.94  0.000818  ( 0.007981  0.024678 -0.012055)
102:   1508.58   0.002639   13.34  0.000546  ( 0.016601  0.016368 -0.001542)
103:   1510.39   0.002367   11.96  0.000489  (-0.021917 -0.000806  0.002824)
104:   1517.70   0.004612   23.31  0.000948  (-0.000473  0.023459 -0.019943)
105:   1528.67   0.012540   63.37  0.002560  (-0.047744 -0.002114  0.016613)
106:   1582.77   0.008367   42.28  0.001650  ( 0.009755  0.025753 -0.029855)
107:   1599.38   0.002916   14.74  0.000569  (-0.016202 -0.011808  0.012927)
108:   1606.87   0.003002   15.17  0.000583  (-0.001542 -0.023800  0.003764)
109:   1656.74   0.025649  129.62  0.004831  ( 0.068467 -0.008158 -0.008770)
110:   2967.77   0.013010   65.75  0.001368  ( 0.023490  0.019632 -0.020758)
111:   2983.41   0.007543   38.12  0.000789  ( 0.014427 -0.004748  0.023630)
112:   2999.00   0.005506   27.83  0.000573  (-0.017585  0.015794 -0.003779)
113:   3004.03   0.003423   17.30  0.000356  (-0.015273  0.003422  0.010518)
114:   3025.56   0.008765   44.29  0.000904  ( 0.009301  0.018037  0.022185)
115:   3046.03   0.006532   33.01  0.000669  ( 0.021853 -0.009104 -0.010430)
116:   3057.45   0.002261   11.43  0.000231  (-0.010816 -0.005090 -0.009375)
117:   3058.16   0.003562   18.00  0.000363  (-0.017591  0.006476 -0.003478)
118:   3060.24   0.004026   20.35  0.000411  (-0.001206 -0.011155 -0.016871)
119:   3091.50   0.004326   21.86  0.000437  ( 0.013895 -0.007907 -0.013457)
120:   3096.03   0.004116   20.80  0.000415  (-0.013445 -0.007677  0.013235)
121:   3099.69   0.007921   40.03  0.000797  ( 0.009458  0.024222 -0.011012)
122:   3106.49   0.005818   29.40  0.000584  (-0.023527  0.004346  0.003471)
123:   3113.82   0.002041   10.32  0.000205  ( 0.006218  0.010983 -0.006730)
124:   3134.16   0.000693    3.50  0.000069  (-0.007930 -0.002005 -0.001443)
125:   3149.76   0.000830    4.19  0.000082  ( 0.008042  0.001800 -0.003780)
126:   3162.25   0.002492   12.59  0.000246  ( 0.004122 -0.011611  0.009698)
127:   3173.37   0.001484    7.50  0.000146  ( 0.009359  0.005617 -0.005178)
128:   3577.47   0.014721   74.39  0.001284  ( 0.012192 -0.028298  0.018294)

* The epsilon (eps) is given for a Dirac delta lineshape.
** The dipole moment derivative (T) already includes vibrational overlap.

The first frequency considered to be a vibration is 6
The total number of vibrations considered is 123


--------------------------
THERMOCHEMISTRY AT 298.15K
--------------------------

Temperature         ...   298.15 K
Pressure            ...     1.00 atm
Total Mass          ...   345.42 AMU
Quasi RRHO          ...     True
Cut-Off Frequency   ...     1.00 cm^-1

Throughout the following assumptions are being made:
  (1) The electronic state is orbitally nondegenerate
  (2) There are no thermally accessible electronically excited states
  (3) Hindered rotations indicated by low frequency modes are not
      treated as such but are treated as vibrations and this may
      cause some error
  (4) All equations used are the standard statistical mechanics
      equations for an ideal gas
  (5) All vibrations are strictly harmonic

freq.      11.20  E(vib)   ...       0.58 
freq.      26.51  E(vib)   ...       0.56 
freq.      46.22  E(vib)   ...       0.53 
freq.      50.81  E(vib)   ...       0.52 
freq.      56.60  E(vib)   ...       0.52 
freq.      71.85  E(vib)   ...       0.50 
freq.      86.34  E(vib)   ...       0.48 
freq.     103.01  E(vib)   ...       0.46 
freq.     104.25  E(vib)   ...       0.46 
freq.     119.73  E(vib)   ...       0.44 
freq.     134.65  E(vib)   ...       0.42 
freq.     140.75  E(vib)   ...       0.41 
freq.     151.72  E(vib)   ...       0.40 
freq.     165.33  E(vib)   ...       0.39 
freq.     200.61  E(vib)   ...       0.35 
freq.     209.35  E(vib)   ...       0.34 
freq.     219.91  E(vib)   ...       0.33 
freq.     249.09  E(vib)   ...       0.31 
freq.     253.21  E(vib)   ...       0.30 
freq.     284.33  E(vib)   ...       0.28 
freq.     290.10  E(vib)   ...       0.27 
freq.     306.63  E(vib)   ...       0.26 
freq.     327.58  E(vib)   ...       0.24 
freq.     341.27  E(vib)   ...       0.23 
freq.     359.87  E(vib)   ...       0.22 
freq.     364.86  E(vib)   ...       0.22 
freq.     392.80  E(vib)   ...       0.20 
freq.     399.57  E(vib)   ...       0.19 
freq.     420.64  E(vib)   ...       0.18 
freq.     438.47  E(vib)   ...       0.17 
freq.     484.99  E(vib)   ...       0.15 
freq.     490.11  E(vib)   ...       0.15 
freq.     499.78  E(vib)   ...       0.14 
freq.     510.88  E(vib)   ...       0.14 
freq.     537.63  E(vib)   ...       0.12 
freq.     542.27  E(vib)   ...       0.12 
freq.     552.09  E(vib)   ...       0.12 
freq.     569.87  E(vib)   ...       0.11 
freq.     607.97  E(vib)   ...       0.10 
freq.     629.53  E(vib)   ...       0.09 
freq.     641.63  E(vib)   ...       0.09 
freq.     662.60  E(vib)   ...       0.08 
freq.     704.11  E(vib)   ...       0.07 
freq.     706.97  E(vib)   ...       0.07 
freq.     766.22  E(vib)   ...       0.06 
freq.     768.01  E(vib)   ...       0.06 
freq.     771.96  E(vib)   ...       0.05 
freq.     783.62  E(vib)   ...       0.05 
freq.     798.75  E(vib)   ...       0.05 
freq.     840.54  E(vib)   ...       0.04 
freq.     876.17  E(vib)   ...       0.04 
freq.     888.56  E(vib)   ...       0.04 
freq.     894.23  E(vib)   ...       0.03 
freq.     906.08  E(vib)   ...       0.03 
freq.     953.22  E(vib)   ...       0.03 
freq.     972.21  E(vib)   ...       0.03 
freq.     984.67  E(vib)   ...       0.02 
freq.    1018.99  E(vib)   ...       0.02 
freq.    1029.12  E(vib)   ...       0.02 
freq.    1044.89  E(vib)   ...       0.02 
freq.    1045.37  E(vib)   ...       0.02 
freq.    1047.03  E(vib)   ...       0.02 
freq.    1054.25  E(vib)   ...       0.02 
freq.    1090.00  E(vib)   ...       0.02 
freq.    1124.49  E(vib)   ...       0.01 
freq.    1137.09  E(vib)   ...       0.01 
freq.    1141.78  E(vib)   ...       0.01 
freq.    1163.85  E(vib)   ...       0.01 
freq.    1170.84  E(vib)   ...       0.01 
freq.    1189.24  E(vib)   ...       0.01 
freq.    1200.74  E(vib)   ...       0.01 
freq.    1206.69  E(vib)   ...       0.01 
freq.    1218.66  E(vib)   ...       0.01 
freq.    1239.59  E(vib)   ...       0.01 
freq.    1243.53  E(vib)   ...       0.01 
freq.    1275.63  E(vib)   ...       0.01 
freq.    1283.38  E(vib)   ...       0.01 
freq.    1307.44  E(vib)   ...       0.01 
freq.    1321.75  E(vib)   ...       0.01 
freq.    1324.93  E(vib)   ...       0.01 
freq.    1378.06  E(vib)   ...       0.01 
freq.    1394.32  E(vib)   ...       0.00 
freq.    1406.63  E(vib)   ...       0.00 
freq.    1410.35  E(vib)   ...       0.00 
freq.    1415.35  E(vib)   ...       0.00 
freq.    1443.48  E(vib)   ...       0.00 
freq.    1462.09  E(vib)   ...       0.00 
freq.    1465.11  E(vib)   ...       0.00 
freq.    1469.41  E(vib)   ...       0.00 
freq.    1482.95  E(vib)   ...       0.00 
freq.    1485.98  E(vib)   ...       0.00 
freq.    1492.38  E(vib)   ...       0.00 
freq.    1495.10  E(vib)   ...       0.00 
freq.    1498.78  E(vib)   ...       0.00 
freq.    1499.09  E(vib)   ...       0.00 
freq.    1505.49  E(vib)   ...       0.00 
freq.    1508.58  E(vib)   ...       0.00 
freq.    1510.39  E(vib)   ...       0.00 
freq.    1517.70  E(vib)   ...       0.00 
freq.    1528.67  E(vib)   ...       0.00 
freq.    1582.77  E(vib)   ...       0.00 
freq.    1599.38  E(vib)   ...       0.00 
freq.    1606.87  E(vib)   ...       0.00 
freq.    1656.74  E(vib)   ...       0.00 
freq.    2967.77  E(vib)   ...       0.00 
freq.    2983.41  E(vib)   ...       0.00 
freq.    2999.00  E(vib)   ...       0.00 
freq.    3004.03  E(vib)   ...       0.00 
freq.    3025.56  E(vib)   ...       0.00 
freq.    3046.03  E(vib)   ...       0.00 
freq.    3057.45  E(vib)   ...       0.00 
freq.    3058.16  E(vib)   ...       0.00 
freq.    3060.24  E(vib)   ...       0.00 
freq.    3091.50  E(vib)   ...       0.00 
freq.    3096.03  E(vib)   ...       0.00 
freq.    3099.69  E(vib)   ...       0.00 
freq.    3106.49  E(vib)   ...       0.00 
freq.    3113.82  E(vib)   ...       0.00 
freq.    3134.16  E(vib)   ...       0.00 
freq.    3149.76  E(vib)   ...       0.00 
freq.    3162.25  E(vib)   ...       0.00 
freq.    3173.37  E(vib)   ...       0.00 
freq.    3577.47  E(vib)   ...       0.00 

------------
INNER ENERGY
------------

The inner energy is: U= E(el) + E(ZPE) + E(vib) + E(rot) + E(trans)
    E(el)   - is the total energy from the electronic structure calculation
              = E(kin-el) + E(nuc-el) + E(el-el) + E(nuc-nuc)
    E(ZPE)  - the the zero temperature vibrational energy from the frequency calculation
    E(vib)  - the the finite temperature correction to E(ZPE) due to population
              of excited vibrational states
    E(rot)  - is the rotational thermal energy
    E(trans)- is the translational thermal energy

Summary of contributions to the inner energy U:
Electronic energy                ...  -1446.78534437 Eh
Zero point energy                ...      0.33551274 Eh     210.54 kcal/mol
Thermal vibrational correction   ...      0.02101705 Eh      13.19 kcal/mol
Thermal rotational correction    ...      0.00141627 Eh       0.89 kcal/mol
Thermal translational correction ...      0.00141627 Eh       0.89 kcal/mol
-----------------------------------------------------------------------
Total thermal energy                  -1446.42598204 Eh


Summary of corrections to the electronic energy:
(perhaps to be used in another calculation)
Total thermal correction                  0.02384959 Eh      14.97 kcal/mol
Non-thermal (ZPE) correction              0.33551274 Eh     210.54 kcal/mol
-----------------------------------------------------------------------
Total correction                          0.35936234 Eh     225.50 kcal/mol


--------
ENTHALPY
--------

The enthalpy is H = U + kB*T
                kB is Boltzmann's constant
Total thermal energy              ...  -1446.42598204 Eh 
Thermal Enthalpy correction       ...      0.00094421 Eh       0.59 kcal/mol
-----------------------------------------------------------------------
Total Enthalpy                    ...  -1446.42503783 Eh


Note: Only C1 symmetry has been detected, increase convergence thresholds 
      if your molecule has a higher symmetry. Symmetry factor of 1.0 is   
      used for the rotational entropy correction. 
 

Note: Rotational entropy computed according to Herzberg 
Infrared and Raman Spectra, Chapter V,1, Van Nostrand Reinhold, 1945 
Point Group:  C1, Symmetry Number:   1  
Rotational constants in cm-1:     0.010045     0.006776     0.004943 

Vibrational entropy computed according to the QRRHO of S. Grimme
Chem.Eur.J. 2012 18 9955 using a reference frequency of 100.0 cm-1


-------
ENTROPY
-------

The entropy contributions are T*S = T*(S(el)+S(vib)+S(rot)+S(trans))
     S(el)   - electronic entropy
     S(vib)  - vibrational entropy
     S(rot)  - rotational entropy
     S(trans)- translational entropy
The entropies will be listed as multiplied by the temperature to get
units of energy

Electronic entropy                ...      0.00000000 Eh      0.00 kcal/mol
Vibrational entropy               ...      0.03781719 Eh     23.73 kcal/mol
Rotational entropy                ...      0.01654729 Eh     10.38 kcal/mol
Translational entropy             ...      0.02062683 Eh     12.94 kcal/mol
-----------------------------------------------------------------------
Final entropy term                ...      0.07499131 Eh     47.06 kcal/mol

In case the symmetry of your molecule has not been determined correctly
or in case you have a reason to use a different symmetry number we print 
out the resulting rotational entropy values for sn=1,12:

 non-linear molecules -----------------------------------
|  sn= 1 | S(rot)=       0.01654729 Eh     10.38 kcal/mol|
|  sn= 2 | S(rot)=       0.01589283 Eh      9.97 kcal/mol|
|  sn= 3 | S(rot)=       0.01551000 Eh      9.73 kcal/mol|
|  sn= 4 | S(rot)=       0.01523838 Eh      9.56 kcal/mol|
|  sn= 5 | S(rot)=       0.01502769 Eh      9.43 kcal/mol|
|  sn= 6 | S(rot)=       0.01485555 Eh      9.32 kcal/mol|
|  sn= 7 | S(rot)=       0.01471000 Eh      9.23 kcal/mol|
|  sn= 8 | S(rot)=       0.01458392 Eh      9.15 kcal/mol|
|  sn= 9 | S(rot)=       0.01447271 Eh      9.08 kcal/mol|
|  sn=10 | S(rot)=       0.01437323 Eh      9.02 kcal/mol|
|  sn=11 | S(rot)=       0.01428324 Eh      8.96 kcal/mol|
|  sn=12 | S(rot)=       0.01420109 Eh      8.91 kcal/mol|
 linear molecules ---------------------------------------
|  Dinfh | S(rot)=       0.01033920 Eh      6.49 kcal/mol|
|  Cinfv | S(rot)=       0.01099366 Eh      6.90 kcal/mol|
 --------------------------------------------------------


-------------------
GIBBS FREE ENERGY
-------------------

The Gibbs free energy is G = H - T*S

Total enthalpy                    ...  -1446.42503783 Eh 
Total entropy correction          ...     -0.07499131 Eh    -47.06 kcal/mol
-----------------------------------------------------------------------
Final Gibbs free energy         ...  -1446.50002913 Eh

For completeness - the Gibbs free energy minus the electronic energy
G-E(el)                           ...      0.28531524 Eh    179.04 kcal/mol


Maximum memory used throughout the entire PROP-calculation: 156.7 MB

--------------------------------
SUGGESTED CITATIONS FOR THIS RUN
--------------------------------

Below you find a list of papers that are relevant to this ORCA run
We neither can nor want to force you to cite these papers, but we appreciate if you do
You receive ORCA, which is the product of decades of hard work by many enthusiastic individuals, for free
The only thing we kindly ask in return is that you cite our papers,
We deeply appreciate it, if you show your appreciation for ORCA by not just citing the generic ORCA reference.

Please note that relegating all ORCA citations to the supporting information does *not* help us.
SI sections are not indexed - citations you put there will not count into any citation statistics
But we need these citations in order to attract the funding resources that allow us to do what we are doing

Therefore, if you are a happy ORCA user, please consider citing a few of the papers listed below in the main body of your paper

In addition to the list printed below, the program has created the file m1_00_Esomeprazole-GitHubGFN2-B97-3C-TZ.bibtex that contains the list in bibtex format
You can import this file easily into all common literature databanks and citation aid programs


List of essential papers. We consider these as the minimum necessary citations

  1. Neese,F.
     Software update: the ORCA program system, version 5.0
     WIRES Comput. Molec. Sci., 2022 12(1)e1606
     doi.org/10.1002/wcms.1606

List of papers to cite with high priority. The work reported in these papers was absolutely
necessary for this run to complete.
Our perspective: the developers of density functionals and basis sets usually get cited in chemistry papers
Good! But without the algorithms to do something with them, the functionals or basis sets would not do anything.
Hence, in our opinion, the algorithm design and method developments papers are equally worthy of getting cited

  1. Neese,F.
     An improvement of the resolution of the identity approximation for the formation of the Coulomb matrix
     J. Comp. Chem., 2003 24(14)1740-1747
     doi.org/10.1002/jcc.10318
  2. Bykov,D.; Petrenko,T.; Izsak,R.; Kossmann,S.; Becker,U.; Valeev,E.; Neese,F.
     Efficient implementation of the analytic second derivatives of Hartree-Fock and hybrid DFT energies: a detailed analysis of different approximations
     Molec. Phys., 2015 113 1961-1977
     doi.org/10.1080/00268976.2015.1025114
  3. Neese,F.
     The SHARK Integral Generation and Digestion System
     J. Comp. Chem., 2022  1-16
     doi.org/10.1002/jcc.26942
  4. Grimme,S.; Antony,J.; Ehrlich,S.; Krieg,H.
     A consistent and accurate ab initio parametrization of density functional dispersion correction (DFT-D) for the 94 elements H-Pu
     J. Chem. Phys., 2010 132 154104
     doi.org/10.1063/1.3382344
  5. Grimme,S.; Ehrlich,S.; Goerigk,L.
     Effect of the damping function in dispersion corrected density functional theory
     J. Comput. Chem., 2011 32(7)1456-1465
     doi.org/10.1002/jcc.21759

List of suggested additional citations. These are papers that are important in the 'surrounding' of 
of this run, or papers that preceded the highly important papers. If you like your results we are grateful for a citation.

  1. Neese,F.
     The ORCA program system
     WIRES Comput. Molec. Sci., 2012 2(1)73-78
     doi.org/10.1002/wcms.81
  2. Neese,F.
     Software update: the ORCA program system, version 4.0
     WIRES Comput. Molec. Sci., 2018 8(1)1-6
     doi.org/10.1002/wcms.1327
  3. Neese,F.; Wennmohs,F.; Becker,U.; Riplinger,C.
     The ORCA quantum chemistry program package
     J. Chem. Phys., 2020 152 Art. No. L224108
     doi.org/10.1063/5.0004608

List of optional additional citations

  1. Neese,F.
     Approximate second-order SCF convergence for spin unrestricted wavefunctions
     Chem. Phys. Lett., 2000 325(1-3)93-98
     doi.org/10.1016/s0009-2614(00)00662-x

Timings for individual modules:

Sum of individual times          ...     1316.669 sec (=  21.944 min)
Startup calculation              ...      131.762 sec (=   2.196 min)  10.0 %
SCF iterations                   ...      289.633 sec (=   4.827 min)  22.0 %
Property integrals               ...      272.838 sec (=   4.547 min)  20.7 %
SCF Response                     ...      318.862 sec (=   5.314 min)  24.2 %
Property calculations            ...      139.432 sec (=   2.324 min)  10.6 %
SCF Gradient evaluation          ...      163.833 sec (=   2.731 min)  12.4 %
Geometry relaxation              ...        0.308 sec (=   0.005 min)   0.0 %
                             ****ORCA TERMINATED NORMALLY****
TOTAL RUN TIME: 0 days 0 hours 22 minutes 1 seconds 74 msec
