
                                 *****************
                                 * O   R   C   A *
                                 *****************

                                            #,                                       
                                            ###                                      
                                            ####                                     
                                            #####                                    
                                            ######                                   
                                           ########,                                 
                                     ,,################,,,,,                         
                               ,,#################################,,                 
                          ,,##########################################,,             
                       ,#########################################, ''#####,          
                    ,#############################################,,   '####,        
                  ,##################################################,,,,####,       
                ,###########''''           ''''###############################       
              ,#####''   ,,,,##########,,,,          '''####'''          '####       
            ,##' ,,,,###########################,,,                        '##       
           ' ,,###''''                  '''############,,,                           
         ,,##''                                '''############,,,,        ,,,,,,###''
      ,#''                                            '''#######################'''  
     '                                                          ''''####''''         
             ,#######,   #######,   ,#######,      ##                                
            ,#'     '#,  ##    ##  ,#'     '#,    #''#        ,####,   ,####,        
            ##       ##  ##   ,#'  ##            #'  '#       #'       #'  '#        
            ##       ##  #######   ##           ,######,      #####,   #    #        
            '#,     ,#'  ##    ##  '#,     ,#' ,#      #,     #,   #   #,  ,#        
             '#######'   ##     ##  '#######'  #'      '#     '####' # '####'        



                #########################################################
                #                        -***-                          #
                #          Department of theory and spectroscopy        #
                #                                                       #
                #                      Frank Neese                      #
                #                                                       #
                #     Directorship, Architecture, Infrastructure        #
                #                    SHARK, DRIVERS                     #
                #        Core code/Algorithms in most modules           #
                #                                                       #
                #        Max Planck Institute fuer Kohlenforschung      #
                #                Kaiser Wilhelm Platz 1                 #
                #                 D-45470 Muelheim/Ruhr                 #
                #                      Germany                          #
                #                                                       #
                #                  All rights reserved                  #
                #                        -***-                          #
                #########################################################


                         Program Version 6.0.1  -  RELEASE   -


 With contributions from (in alphabetic order):
[Max-Planck-Institut fuer Kohlenforschung]                               
  Daniel Aravena         : Magnetic Suceptibility                        
  Michael Atanasov       : Ab Initio Ligand Field Theory (pilot matlab implementation)
  Alexander A. Auer      : GIAO ZORA, VPT2 properties, NMR spectrum      
  Ute Becker             : All parallelization in ORCA, NUMFREQ, NUMCALC 
  Giovanni Bistoni       : ED, misc. LED, open-shell LED, HFLD           
  Martin Brehm           : Molecular dynamics                            
  Dmytro Bykov           : pre 5.0 version of the SCF Hessian            
  Marcos Casanova-Páez   : Triplet and SCS-CIS(D). UHF-(DLPNO)-IP/EA/STEOM-CCSD. UHF-CVS-IP/STEOM-CCSD   
  Vijay G. Chilkuri      : MRCI spin determinant printing, contributions to CSF-ICE 
  Pauline Colinet        : FMM embedding                                 
  Dipayan Datta          : RHF DLPNO-CCSD density                        
  Achintya Kumar Dutta   : EOM-CC, STEOM-CC                              
  Nicolas Foglia         : Exact transition moments, OPA infrastructure, MCD improvements    
  Dmitry Ganyushin       : Spin-Orbit,Spin-Spin,Magnetic field MRCI      
  Miquel Garcia-Rates    : C-PCM and meta-GGA Hessian, CCSD/C-PCM, Gaussian charge scheme 
  Tiago L. C. Gouveia    : GS-ROHF, GS-ROCIS                             
  Yang Guo               : DLPNO-NEVPT2, F12-NEVPT2, CIM, IAO-localization        
  Andreas Hansen         : Spin unrestricted coupled pair/coupled cluster methods 
  Ingolf Harden          : AUTO-CI MPn and infrastructure                
  Benjamin Helmich-Paris : MC-RPA, TRAH-(SCF,CASSCF), AVAS, COSX integrals, SCF dyn. polar. 
  Lee Huntington         : MR-EOM, pCC                                   
  Robert Izsak           : Overlap fitted RIJCOSX, COSX-SCS-MP3, EOM     
  Riya Kayal             : Wick's Theorem for AUTO-CI, AUTO-CI UHF-CCSDT 
  Emily Kempfer          : AUTO-CI, RHF CISDT and CCSDT                  
  Christian Kollmar      : KDIIS, OOCD, Brueckner-CCSD(T), CCSD density, CASPT2, CASPT2-K, improved NEVPT2 
  Axel Koslowski         : Symmetry handling                             
  Simone Kossmann        : meta-GGA functionals, TD-DFT gradient, OOMP2, (MP2 Hessian; deprecated post 5.0) 
  Lucas Lang             : DCDCAS                                        
  Marvin Lechner         : AUTO-CI (C++ implementation), FIC-MRCC        
  Spencer Leger          : CASSCF response                               
  Dagmar Lenk            : GEPOL surface, SMD, ORCA-2-JSON               
  Dimitrios Liakos       : Extrapolation schemes; Compound Job, initial MDCI parallelization 
  Dimitrios Manganas     : Further ROCIS development; embedding schemes. LFT, Crystal Embedding 
  Dimitrios Pantazis     : SARC Basis sets                               
  Anastasios Papadopoulos: AUTO-CI, single reference methods and gradients 
  Taras Petrenko         : pre 6.0 DFT Hessian and TD-DFT gradient, (ASA, deprecated), ECA, 1-Electron XAS/XES, NRVS 
  Peter Pinski           : DLPNO-MP2, DLPNO-MP2 Gradient                 
  Christoph Reimann      : Effective Core Potentials                     
  Marius Retegan         : Local ZFS, SOC                                
  Christoph Riplinger    : Optimizer, TS searches, QM/MM, DLPNO-CCSD(T), (RO)-DLPNO pert. Triples 
  Michael Roemelt        : Original ROCIS implementation                 
  Masaaki Saitow         : Open-shell DLPNO-CCSD energy and density      
  Barbara Sandhoefer     : DKH picture change effects                    
  Kantharuban Sivalingam : CASSCF convergence/infrastructure, NEVPT2 and variants, FIC-MRCI 
  Bernardo de Souza      : ESD, SOC TD-DFT                               
  Georgi L. Stoychev     : AutoAux, RI-MP2 NMR, DLPNO-MP2 response, X2C  
  Van Anh Tran           : RI-MP2 g-tensors                              
  Willem Van den Heuvel  : Paramagnetic NMR                              
  Zikuan Wang            : NOTCH, Electric field optimization            
  Frank Wennmohs         : Technical directorship and infrastructure     
  Hang Xu                : AUTO-CI-Response properties                   
                                                                         
[FACCTs GmbH]                                                            
  Markus Bursch, Miquel Garcia-Rates, Christoph Riplinger, Bernardo de Souza, Georgi L. Stoychev 
                                                                 
  APM, Basis sets (HGBS, AHGBS, def-TZVP (Ac-Lr), def2-XVPD (La-Lu)), CI-OPT, improved COSX, DLPNO-Multilevel,           
  DOCKER, DRACO, updates on ESD, GOAT, IRC, LR-CPCM, MBIS, meta-GGA TD-DFT gradient, ML-optimized integration grids, 
  MM, NACMEs, nearIR, NEB, NEB-TS, NL-DFT gradient (VV10), 2- and 3-layer-ONIOM, interface openCOSMO-RS, QMMM,   
  Crystal-QMMM, SF, symmetry and pop. for TD-DFT, r2SCAN hybrids, SOLVATOR                                   
                                                                         
[Other institutions]                                                     
  V. Asgeirsson          : NEB                                           
  Christoph Bannwarth    : sTDA-DFT, sTD-DFT, PBEh-3c, B97-3c, D3        
  Sebastian Ehlert       : rSCAN, r2SCAN, r2SCAN-3c, D4, dhf basis sets  
  Marvin Friede          : D4 for Fr, Ra, Ac-Lr                          
  Lars Goerigk           : TD-DFT with DH, B97 family of functionals     
  Stefan Grimme          : VdW corrections, initial TS optimization, DFT functionals, gCP, sTDA/sTD-DF 
  Waldemar Hujo          : DFT-NL                                        
  H. Jonsson             : NEB                                           
  Holger Kruse           : gCP                                           
  Marcel Mueller         : wB97X-3c, vDZP basis set                      
  Hagen Neugebauer       : wr2SCAN                                       
  Tobias Risthaus        : range-separated hybrid DFT                    
  Lukas Wittmann         : regularized MP2, r2SCAN double-hybrids, wr2SCAN        
                                                                         
We gratefully acknowledge several colleagues who have allowed us to      
interface, adapt or use parts of their codes:                            
  Ed Valeev, F. Pavosevic, A. Kumar             : LibInt (2-el integral package), F12 methods 
  Garnet Chan, S. Sharma, J. Yang, R. Olivares  : DMRG                   
  Ulf Ekstrom                                   : XCFun DFT Library      
  Mihaly Kallay                                 : mrcc  (arbitrary order and MRCC methods)
  Frank Weinhold                                : gennbo (NPA and NBO analysis)           
  Simon Mueller                                 : openCOSMO-RS                            
  Christopher J. Cramer and Donald G. Truhlar   : smd solvation model                     
  S Lehtola, MJT Oliveira, MAL Marques          : LibXC Library                           
  Liviu Ungur et al                             : ANISO software                          


 Your calculation uses the libint2 library for the computation of 2-el integrals
 For citations please refer to: http://libint.valeyev.net

 Your ORCA version has been built with support for libXC version: 6.2.2
 For citations please refer to: https://libxc.gitlab.io

 This ORCA versions uses:
   CBLAS   interface :  Fast vector & matrix operations
   LAPACKE interface :  Fast linear algebra routines
   SCALAPACK package :  Parallel linear algebra routines
   Shared memory     :  Shared parallel matrices
   BLAS/LAPACK       :  OpenBLAS 0.3.27  USE64BITINT DYNAMIC_ARCH NO_AFFINITY Zen SINGLE_THREADED
        Core in use  :  Zen
   Copyright (c) 2011-2014, The OpenBLAS Project


NOTE: MaxCore=6000 MB was set to SCF,MP2,MDCI,CIPSI,MRCI and CIS
      => If you want to overwrite this, your respective input block should be placed after the MaxCore statement
Your calculation utilizes the atom-pairwise dispersion correction
with the Becke-Johnson damping scheme (D3BJ)


Your calculation employs the composite approach B97-3c by Grimme and coworkers.
For the correct reference, please check the publication list of the Grimme group:
http://www.thch.uni-bonn.de/tc/index.php?section=publikationen&subsection=grimme#2017
   

XCFun DFT library Copyright 2009-2010 Ulf Ekstrom and contributors.
See http://admol.org/xcfun for more information.
This is free software; see the source code for copying conditions.
There is ABSOLUTELY NO WARRANTY; not even for MERCHANTABILITY or FITNESS FOR A PARTICULAR PURPOSE.
For details see the documentation.
Scientific users of this library should cite U. Ekstrom, L. Visscher, R. Bast, A. J. Thorvaldsen and K. Ruud;
J.Chem.Theor.Comp. 2010, DOI: 10.1021/ct100117s
XCFun Version 0.99 

================================================================================

----- Orbital basis set information -----
Your calculation utilizes the basis: def2-mTZVP
----- AuxJ basis set information -----
Your calculation utilizes the basis: def2-mTZVP/J
================================================================================
                                        WARNINGS
                       Please study these warnings very carefully!
================================================================================


WARNING: Geometry Optimization
  ===> : Switching off AutoStart
         For restart on a previous wavefunction, please use MOREAD

================================================================================
                                       INPUT FILE
================================================================================
NAME = m1_00_Chloroquine-GitHubGFN2-B97-3C-TZ.inp
|  1> %pal nprocs 16 end
|  2> %MaxCore 6000
|  3> # put your comments here
|  4> ! B97-3C  OPT  FREQ DEFGRID3 NOTRAH
|  5> %scf MaxIter 800 end
|  6> %output
|  7> Print [P_Hirshfeld] 1
|  8> end
|  9> %geom
| 10> MaxIter 3000
| 11>  TolE 1e-6 #TolE 5e-6 Energy change (a.u.)
| 12>  TolRMSG 3e-5 #TolRMSG 1e-4 RMS gradient (a.u.)
| 13>  TolMaxG 1e-4 #TolMaxG 3e-3 Max. element of gradient (a.u.)
| 14>  TolRMSD 2e-3 #TolRMSD 2e-3 RMS displacement (a.u.)
| 15>  TolMaxD 4e-3 #TolMaxD 4e-3 Max. displacement (a.u.)
| 16> end
| 17> * xyz 0 1
| 18> Cl         4.8349921258         1.5117232465         0.3691244293
| 19>  N        -2.0874401726         1.6519973197        -0.2799103583
| 20>  N        -1.3974086779        -1.1151599564         0.3906520181
| 21>  N         2.2739731775        -2.6338860135        -0.9376784312
| 22>  C        -3.8121816167        -0.8486845811         0.3706043501
| 23>  C        -3.8616203816         0.0198730391        -0.8954904041
| 24>  C        -2.6477558275        -1.8402397254         0.3886079219
| 25>  C        -3.4900436412         1.4848417385        -0.6455243333
| 26>  C        -2.7288867289        -2.7371020783         1.6292691243
| 27>  C        -1.8671609865         2.7324594624         0.6751107066
| 28>  C        -1.2083075309         1.7309995860        -1.4428734696
| 29>  C        -0.2103019386        -1.6373158135         0.0068438233
| 30>  C         0.9907781321        -0.8609495600         0.1310062233
| 31>  C        -2.2652211196         2.3320792488         2.0941298378
| 32>  C        -1.2727090749         3.0247977093        -2.2599637626
| 33>  C        -0.0640964218        -2.9256374335        -0.4999688029
| 34>  C         2.1970400145        -1.4067323270        -0.3880801077
| 35>  C         1.0460022873         0.3870905943         0.7759796356
| 36>  C         1.1805178726        -3.3528581164        -0.9539380839
| 37>  C         3.3851165022        -0.6485066865        -0.3182820309
| 38>  C         2.2121861146         1.1006490663         0.8551632537
| 39>  C         3.3786418748         0.5791688641         0.2808241034
| 40>  H        -4.7364510211        -1.4214760306         0.4586925383
| 41>  H        -3.7370479390        -0.2113065004         1.2525414159
| 42>  H        -4.8719473474         0.0084298874        -1.3081636952
| 43>  H        -3.1988690907        -0.3987450427        -1.6540654057
| 44>  H        -2.7148989068        -2.4706664460        -0.5099966681
| 45>  H        -3.7418114362         2.0680892150        -1.5425882837
| 46>  H        -4.1129096665         1.8636587814         0.1666593839
| 47>  H        -1.4883573150        -0.1033096437         0.4360185390
| 48>  H        -2.7273180670        -2.1272070282         2.5295379910
| 49>  H        -1.8731737513        -3.4057385312         1.6687449008
| 50>  H        -3.6374772490        -3.3331598140         1.6108730358
| 51>  H        -0.7998429882         2.9661727527         0.6659202752
| 52>  H        -2.4133085389         3.6461058381         0.3932496206
| 53>  H        -0.1816851059         1.5910337502        -1.0913403501
| 54>  H        -1.4504221986         0.8860618614        -2.0917519635
| 55>  H        -1.7533782653         1.4214396702         2.3968833955
| 56>  H        -1.9928535763         3.1264264932         2.7845841356
| 57>  H        -3.3367063885         2.1667598777         2.1776177696
| 58>  H        -2.2768609531         3.2126555769        -2.6335147284
| 59>  H        -0.9597610067         3.8784616366        -1.6640500379
| 60>  H        -0.6044207830         2.9397086111        -3.1124746856
| 61>  H        -0.9041158769        -3.5954100973        -0.5821277398
| 62>  H         0.1616711016         0.7812320294         1.2502485700
| 63>  H         1.2826167265        -4.3452455382        -1.3766963330
| 64>  H         4.2828118678        -1.0753594219        -0.7345581883
| 65>  H         2.2471231160         2.0533624772         1.3602709104
| 66> *
| 67> 
| 68> 
| 69> 
| 70> 
| 71>                          ****END OF INPUT****
================================================================================

                       *****************************
                       * Geometry Optimization Run *
                       *****************************

Geometry optimization settings:
Update method            Update   .... BFGS
Choice of coordinates    CoordSys .... (2022) Redundant Internals
Initial Hessian          InHess   .... Almloef's Model
Max. no of cycles        MaxIter  .... 3000

Convergence Tolerances:
Energy Change            TolE     ....  1.0000e-06 Eh
Max. Gradient            TolMAXG  ....  1.0000e-04 Eh/bohr
RMS Gradient             TolRMSG  ....  3.0000e-05 Eh/bohr
Max. Displacement        TolMAXD  ....  4.0000e-03 bohr
RMS Displacement         TolRMSD  ....  2.0000e-03 bohr
Strict Convergence                .... False

------------------------------------------------------------------------------
                        ORCA OPTIMIZATION COORDINATE SETUP
------------------------------------------------------------------------------

The optimization will be done in redundant internal coordinates (2022)
Making redundant internal coordinates   ...  (2022 redundants) done
Evaluating the initial hessian          ...  (Almloef) done
Evaluating the coordinates              ...  done
Calculating the B-matrix                .... done
Calculating the G-matrix                .... done
Diagonalizing the G-matrix              .... done
Small eigenvalue found = 1.513e-03
Small eigenvalue found = 3.189e-03
Small eigenvalue found = 4.625e-03
Small eigenvalue found = 1.188e-02
Small eigenvalue found = 1.872e-02
Small eigenvalue found = 1.935e-02
Small eigenvalue found = 2.742e-02
The first mode is                       ....  103
The number of degrees of freedom        ....  138

    -----------------------------------------------------------------
                    Redundant Internal Coordinates


    -----------------------------------------------------------------
         Definition                    Initial Value    Approx d2E/dq
    -----------------------------------------------------------------
      1. B(C   5,C   4)                  1.5362         0.365196   
      2. B(C   6,N   2)                  1.4454         0.456590   
      3. B(C   6,C   4)                  1.5295         0.374251   
      4. B(C   7,N   1)                  1.4591         0.434175   
      5. B(C   7,C   5)                  1.5319         0.370991   
      6. B(C   8,C   6)                  1.5330         0.369438   
      7. B(C   9,N   1)                  1.4588         0.434680   
      8. B(C  10,N   1)                  1.4600         0.432709   
      9. B(C  11,N   2)                  1.3525         0.642319   
     10. B(C  12,C  11)                  1.4355         0.528560   
     11. B(C  13,C   9)                  1.5272         0.377423   
     12. B(C  14,C  10)                  1.5316         0.371430   
     13. B(C  15,C  11)                  1.3921         0.619942   
     14. B(C  16,C  12)                  1.4221         0.555276   
     15. B(C  16,N   3)                  1.3468         0.655829   
     16. B(C  17,C  12)                  1.4059         0.589278   
     17. B(C  18,C  15)                  1.3920         0.620218   
     18. B(C  18,N   3)                  1.3088         0.754228   
     19. B(C  19,C  16)                  1.4111         0.578120   
     20. B(C  20,C  17)                  1.3695         0.673766   
     21. B(C  21,C  20)                  1.4009         0.600347   
     22. B(C  21,C  19)                  1.3661         0.682200   
     23. B(C  21,Cl  0)                  1.7316         0.399711   
     24. B(H  22,C   4)                  1.0909         0.358875   
     25. B(H  23,C   4)                  1.0907         0.359125   
     26. B(H  24,C   5)                  1.0914         0.358231   
     27. B(H  25,C   5)                  1.0908         0.359000   
     28. B(H  26,C   6)                  1.0997         0.347438   
     29. B(H  27,C   7)                  1.0992         0.348105   
     30. B(H  28,C   7)                  1.0914         0.358281   
     31. B(H  29,N   2)                  1.0169         0.421813   
     32. B(H  29,N   1)                  1.9881         0.011904   
     33. B(H  30,C   8)                  1.0874         0.363544   
     34. B(H  31,C   8)                  1.0867         0.364516   
     35. B(H  32,C   8)                  1.0868         0.364342   
     36. B(H  33,C   9)                  1.0926         0.356617   
     37. B(H  34,C   9)                  1.1011         0.345682   
     38. B(H  35,C  10)                  1.0941         0.354678   
     39. B(H  36,C  10)                  1.0925         0.356792   
     40. B(H  37,C  13)                  1.0876         0.363268   
     41. B(H  38,C  13)                  1.0872         0.363888   
     42. B(H  39,C  13)                  1.0874         0.363591   
     43. B(H  40,C  14)                  1.0877         0.363118   
     44. B(H  41,C  14)                  1.0871         0.363954   
     45. B(H  42,C  14)                  1.0866         0.364672   
     46. B(H  43,C  15)                  1.0775         0.377039   
     47. B(H  44,C  17)                  1.0781         0.376178   
     48. B(H  45,C  18)                  1.0835         0.368796   
     49. B(H  46,C  19)                  1.0777         0.376803   
     50. B(H  47,C  20)                  1.0789         0.375093   
     51. A(C   9,N   1,C  10)          112.9844         0.377713   
     52. A(C   7,N   1,C   9)          113.2074         0.377934   
     53. A(C   7,N   1,C  10)          112.6710         0.377637   
     54. A(C   6,N   2,H  29)          114.9508         0.339179   
     55. A(C  11,N   2,H  29)          118.3789         0.359271   
     56. A(C   6,N   2,C  11)          124.4175         0.408249   
     57. A(C  16,N   3,C  18)          117.2514         0.448345   
     58. A(C   5,C   4,H  23)          109.7693         0.322970   
     59. A(C   5,C   4,H  22)          109.6424         0.322933   
     60. A(C   6,C   4,H  23)          108.4737         0.324271   
     61. A(H  22,C   4,H  23)          107.4508         0.290560   
     62. A(C   5,C   4,C   6)          113.6247         0.362058   
     63. A(C   6,C   4,H  22)          107.6783         0.324234   
     64. A(C   7,C   5,H  24)          107.2333         0.323673   
     65. A(H  24,C   5,H  25)          107.1852         0.290462   
     66. A(C   4,C   5,C   7)          113.4788         0.361518   
     67. A(C   7,C   5,H  25)          109.4569         0.323787   
     68. A(C   4,C   5,H  24)          109.6027         0.322838   
     69. A(C   4,C   5,H  25)          109.6707         0.322952   
     70. A(C   4,C   6,C   8)          110.3955         0.362773   
     71. A(C   4,C   6,H  26)          108.3928         0.322516   
     72. A(C   8,C   6,H  26)          108.8248         0.321832   
     73. A(N   2,C   6,H  26)          109.9710         0.331256   
     74. A(N   2,C   6,C   8)          109.7622         0.373020   
     75. A(N   2,C   6,C   4)          109.4743         0.373854   
     76. A(H  27,C   7,H  28)          107.0035         0.289068   
     77. A(N   1,C   7,H  28)          108.8072         0.330183   
     78. A(C   5,C   7,H  27)          108.5843         0.322155   
     79. A(N   1,C   7,H  27)          111.3389         0.328616   
     80. A(N   1,C   7,C   5)          112.5580         0.370069   
     81. A(C   5,C   7,H  28)          108.3569         0.323680   
     82. A(H  31,C   8,H  32)          108.7524         0.291934   
     83. A(C   6,C   8,H  32)          110.5730         0.324350   
     84. A(H  30,C   8,H  31)          108.2940         0.291834   
     85. A(C   6,C   8,H  31)          110.3462         0.324375   
     86. A(C   6,C   8,H  30)          109.9872         0.324233   
     87. A(H  30,C   8,H  32)          108.8340         0.291812   
     88. A(C  13,C   9,H  34)          109.0318         0.322694   
     89. A(C  13,C   9,H  33)          108.5719         0.324347   
     90. A(N   1,C   9,H  33)          107.4831         0.329993   
     91. A(N   1,C   9,C  13)          112.0097         0.371239   
     92. A(N   1,C   9,H  34)          111.8443         0.328300   
     93. A(H  33,C   9,H  34)          107.7499         0.288542   
     94. A(N   1,C  10,H  35)          107.5867         0.329448   
     95. A(N   1,C  10,C  14)          116.4457         0.369930   
     96. A(C  14,C  10,H  36)          109.0955         0.323522   
     97. A(C  14,C  10,H  35)          108.5981         0.323207   
     98. A(H  35,C  10,H  36)          107.4473         0.289728   
     99. A(N   1,C  10,H  36)          107.3258         0.329772   
    100. A(C  12,C  11,C  15)          116.3666         0.421819   
    101. A(N   2,C  11,C  15)          123.5582         0.433970   
    102. A(N   2,C  11,C  12)          120.0686         0.421740   
    103. A(C  11,C  12,C  17)          123.5474         0.418020   
    104. A(C  16,C  12,C  17)          118.3473         0.421712   
    105. A(C  11,C  12,C  16)          118.0706         0.413623   
    106. A(H  37,C  13,H  39)          108.3647         0.291682   
    107. A(H  38,C  13,H  39)          108.0108         0.291760   
    108. A(C   9,C  13,H  39)          111.5945         0.325381   
    109. A(H  37,C  13,H  38)          108.4865         0.291720   
    110. A(C   9,C  13,H  38)          109.4665         0.325425   
    111. A(C   9,C  13,H  37)          110.8233         0.325333   
    112. A(H  41,C  14,H  42)          108.3322         0.291905   
    113. A(H  40,C  14,H  42)          108.1718         0.291799   
    114. A(C  10,C  14,H  42)          109.0604         0.324685   
    115. A(H  40,C  14,H  41)          108.5654         0.291709   
    116. A(C  10,C  14,H  41)          111.0268         0.324579   
    117. A(C  10,C  14,H  40)          111.5880         0.324457   
    118. A(C  11,C  15,C  18)          119.7792         0.434086   
    119. A(C  18,C  15,H  43)          118.7781         0.355690   
    120. A(C  11,C  15,H  43)          121.4087         0.355663   
    121. A(C  12,C  16,C  19)          119.3323         0.420276   
    122. A(N   3,C  16,C  19)          117.4950         0.430163   
    123. A(N   3,C  16,C  12)          123.1678         0.427064   
    124. A(C  12,C  17,C  20)          121.5007         0.436601   
    125. A(C  20,C  17,H  44)          118.8541         0.360595   
    126. A(C  12,C  17,H  44)          119.6116         0.352483   
    127. A(N   3,C  18,C  15)          125.0559         0.446777   
    128. A(C  15,C  18,H  45)          119.5117         0.354359   
    129. A(N   3,C  18,H  45)          115.4217         0.364090   
    130. A(C  16,C  19,C  21)          120.0385         0.436076   
    131. A(C  21,C  19,H  46)          121.9595         0.361464   
    132. A(C  16,C  19,H  46)          117.9953         0.351444   
    133. A(C  17,C  20,C  21)          119.4327         0.438068   
    134. A(C  21,C  20,H  47)          119.5840         0.353422   
    135. A(C  17,C  20,H  47)          120.9812         0.360418   
    136. A(C  19,C  21,C  20)          121.2178         0.439053   
    137. A(Cl  0,C  21,C  20)          118.6153         0.417052   
    138. A(Cl  0,C  21,C  19)          120.1569         0.426681   
    139. D(C   7,C   5,C   4,H  22)    130.4566         0.010679   
    140. D(C   7,C   5,C   4,C   6)   -109.0095         0.010679   
    141. D(C   7,C   5,C   4,H  23)     12.6402         0.010679   
    142. D(H  24,C   5,C   4,H  22)     10.6169         0.010679   
    143. D(H  24,C   5,C   4,C   6)    131.1508         0.010679   
    144. D(H  24,C   5,C   4,H  23)   -107.1995         0.010679   
    145. D(C   8,C   6,C   4,C   5)   -175.7719         0.011182   
    146. D(C   4,C   6,N   2,C  11)   -159.1331         0.017792   
    147. D(N   2,C   6,C   4,C   5)     63.2910         0.011182   
    148. D(N   2,C   6,C   4,H  23)    -59.0774         0.011182   
    149. D(H  26,C   6,N   2,C  11)    -40.1475         0.017792   
    150. D(C   8,C   6,N   2,H  29)   -117.8513         0.017792   
    151. D(N   2,C   6,C   4,H  22)   -175.0749         0.011182   
    152. D(C   8,C   6,C   4,H  23)     61.8598         0.011182   
    153. D(C   8,C   6,C   4,H  22)    -54.1377         0.011182   
    154. D(C   8,C   6,N   2,C  11)     79.5464         0.017792   
    155. D(C   4,C   6,N   2,H  29)      3.4692         0.017792   
    156. D(H  27,C   7,C   5,H  25)     68.2696         0.010999   
    157. D(H  27,C   7,C   5,H  24)    -47.6854         0.010999   
    158. D(N   1,C   7,C   5,H  25)    -55.4672         0.010999   
    159. D(N   1,C   7,C   5,H  24)   -171.4222         0.010999   
    160. D(N   1,C   7,C   5,C   4)     67.3990         0.010999   
    161. D(H  28,C   7,N   1,C  10)   -155.2746         0.017225   
    162. D(H  28,C   7,N   1,C   9)    -25.5177         0.017225   
    163. D(H  27,C   7,N   1,C  10)    -37.5831         0.017225   
    164. D(H  27,C   7,C   5,C   4)   -168.8642         0.010999   
    165. D(C   5,C   7,N   1,C  10)     84.6107         0.017225   
    166. D(H  27,C   7,N   1,C   9)     92.1737         0.017225   
    167. D(C   5,C   7,N   1,C   9)   -145.6324         0.017225   
    168. D(H  30,C   8,C   6,C   4)    -57.6081         0.010913   
    169. D(H  30,C   8,C   6,N   2)     63.1573         0.010913   
    170. D(H  31,C   8,C   6,H  26)     64.1352         0.010913   
    171. D(H  31,C   8,C   6,C   4)   -177.0219         0.010913   
    172. D(H  31,C   8,C   6,N   2)    -56.2565         0.010913   
    173. D(H  30,C   8,C   6,H  26)   -176.4510         0.010913   
    174. D(H  34,C   9,N   1,C  10)     83.5880         0.017265   
    175. D(H  34,C   9,N   1,C   7)    -46.0098         0.017265   
    176. D(H  33,C   9,N   1,C  10)    -34.4862         0.017265   
    177. D(H  33,C   9,N   1,C   7)   -164.0841         0.017265   
    178. D(C  13,C   9,N   1,C  10)   -153.6619         0.017265   
    179. D(C  13,C   9,N   1,C   7)     76.7402         0.017265   
    180. D(H  36,C  10,N   1,C   7)    -50.0815         0.017107   
    181. D(H  35,C  10,N   1,C   9)     64.6841         0.017107   
    182. D(H  35,C  10,N   1,C   7)   -165.4449         0.017107   
    183. D(C  14,C  10,N   1,C   9)    -57.4108         0.017107   
    184. D(H  36,C  10,N   1,C   9)   -179.9525         0.017107   
    185. D(C  14,C  10,N   1,C   7)     72.4601         0.017107   
    186. D(C  15,C  11,N   2,H  29)   -158.8298         0.033601   
    187. D(C  15,C  11,N   2,C   6)      3.2239         0.033601   
    188. D(C  12,C  11,N   2,H  29)     22.1382         0.033601   
    189. D(C  12,C  11,N   2,C   6)   -175.8081         0.033601   
    190. D(C  17,C  12,C  11,C  15)   -171.7307         0.019067   
    191. D(C  17,C  12,C  11,N   2)      7.3690         0.019067   
    192. D(C  16,C  12,C  11,C  15)      6.0891         0.019067   
    193. D(C  16,C  12,C  11,N   2)   -174.8113         0.019067   
    194. D(H  38,C  13,C   9,H  34)    -61.2941         0.011361   
    195. D(H  38,C  13,C   9,H  33)     55.8421         0.011361   
    196. D(H  38,C  13,C   9,N   1)    174.3746         0.011361   
    197. D(H  37,C  13,C   9,H  34)    179.0863         0.011361   
    198. D(H  37,C  13,C   9,H  33)    -63.7775         0.011361   
    199. D(H  37,C  13,C   9,N   1)     54.7550         0.011361   
    200. D(H  40,C  14,C  10,H  35)   -179.9146         0.011023   
    201. D(H  40,C  14,C  10,N   1)    -58.3521         0.011023   
    202. D(H  41,C  14,C  10,H  36)   -175.4786         0.011023   
    203. D(H  41,C  14,C  10,H  35)    -58.6539         0.011023   
    204. D(H  41,C  14,C  10,N   1)     62.9087         0.011023   
    205. D(H  40,C  14,C  10,H  36)     63.2606         0.011023   
    206. D(H  43,C  15,C  11,C  12)    176.9624         0.026594   
    207. D(H  43,C  15,C  11,N   2)     -2.1025         0.026594   
    208. D(C  18,C  15,C  11,C  12)     -5.1862         0.026594   
    209. D(C  18,C  15,C  11,N   2)    175.7489         0.026594   
    210. D(C  19,C  16,C  12,C  17)     -4.0528         0.021107   
    211. D(C  19,C  16,C  12,C  11)    178.0118         0.021107   
    212. D(N   3,C  16,C  12,C  17)    175.1215         0.021107   
    213. D(N   3,C  16,C  12,C  11)     -2.8139         0.021107   
    214. D(C  19,C  16,N   3,C  18)    177.4677         0.031834   
    215. D(C  12,C  16,N   3,C  18)     -1.7208         0.031834   
    216. D(H  44,C  17,C  12,C  16)   -174.8259         0.023894   
    217. D(H  44,C  17,C  12,C  11)      2.9882         0.023894   
    218. D(C  20,C  17,C  12,C  16)      3.0418         0.023894   
    219. D(C  20,C  17,C  12,C  11)   -179.1442         0.023894   
    220. D(H  45,C  18,C  15,H  43)     -0.1500         0.026619   
    221. D(H  45,C  18,C  15,C  11)   -178.0579         0.026619   
    222. D(N   3,C  18,C  15,H  43)    178.6080         0.026619   
    223. D(N   3,C  18,C  15,C  11)      0.7002         0.026619   
    224. D(H  45,C  18,N   3,C  16)   -178.3080         0.043257   
    225. D(C  15,C  18,N   3,C  16)      2.8887         0.043257   
    226. D(H  46,C  19,C  16,C  12)   -178.8864         0.022955   
    227. D(H  46,C  19,C  16,N   3)      1.8928         0.022955   
    228. D(C  21,C  19,C  16,C  12)      2.0398         0.022955   
    229. D(C  21,C  19,C  16,N   3)   -177.1810         0.022955   
    230. D(H  47,C  20,C  17,H  44)     -1.5335         0.031776   
    231. D(H  47,C  20,C  17,C  12)   -179.4169         0.031776   
    232. D(C  21,C  20,C  17,H  44)    177.9341         0.031776   
    233. D(C  21,C  20,C  17,C  12)      0.0507         0.031776   
    234. D(C  19,C  21,C  20,C  17)     -2.2038         0.024848   
    235. D(Cl  0,C  21,C  20,H  47)     -1.5816         0.024848   
    236. D(Cl  0,C  21,C  20,C  17)    178.9433         0.024848   
    237. D(C  20,C  21,C  19,H  46)   -177.9126         0.032640   
    238. D(C  20,C  21,C  19,C  16)      1.1235         0.032640   
    239. D(Cl  0,C  21,C  19,H  46)      0.9229         0.032640   
    240. D(C  19,C  21,C  20,H  47)    177.2713         0.024848   
    241. D(Cl  0,C  21,C  19,C  16)    179.9589         0.032640   
    -----------------------------------------------------------------

Number of atoms                         .... 48
Number of degrees of freedom            .... 241


         *************************************************************
         *                GEOMETRY OPTIMIZATION CYCLE   1            *
         *************************************************************
---------------------------------
CARTESIAN COORDINATES (ANGSTROEM)
---------------------------------
  Cl     4.834992    1.511723    0.369124
  N     -2.087440    1.651997   -0.279910
  N     -1.397409   -1.115160    0.390652
  N      2.273973   -2.633886   -0.937678
  C     -3.812182   -0.848685    0.370604
  C     -3.861620    0.019873   -0.895490
  C     -2.647756   -1.840240    0.388608
  C     -3.490044    1.484842   -0.645524
  C     -2.728887   -2.737102    1.629269
  C     -1.867161    2.732459    0.675111
  C     -1.208308    1.731000   -1.442873
  C     -0.210302   -1.637316    0.006844
  C      0.990778   -0.860950    0.131006
  C     -2.265221    2.332079    2.094130
  C     -1.272709    3.024798   -2.259964
  C     -0.064096   -2.925637   -0.499969
  C      2.197040   -1.406732   -0.388080
  C      1.046002    0.387091    0.775980
  C      1.180518   -3.352858   -0.953938
  C      3.385117   -0.648507   -0.318282
  C      2.212186    1.100649    0.855163
  C      3.378642    0.579169    0.280824
  H     -4.736451   -1.421476    0.458693
  H     -3.737048   -0.211307    1.252541
  H     -4.871947    0.008430   -1.308164
  H     -3.198869   -0.398745   -1.654065
  H     -2.714899   -2.470666   -0.509997
  H     -3.741811    2.068089   -1.542588
  H     -4.112910    1.863659    0.166659
  H     -1.488357   -0.103310    0.436019
  H     -2.727318   -2.127207    2.529538
  H     -1.873174   -3.405739    1.668745
  H     -3.637477   -3.333160    1.610873
  H     -0.799843    2.966173    0.665920
  H     -2.413309    3.646106    0.393250
  H     -0.181685    1.591034   -1.091340
  H     -1.450422    0.886062   -2.091752
  H     -1.753378    1.421440    2.396883
  H     -1.992854    3.126426    2.784584
  H     -3.336706    2.166760    2.177618
  H     -2.276861    3.212656   -2.633515
  H     -0.959761    3.878462   -1.664050
  H     -0.604421    2.939709   -3.112475
  H     -0.904116   -3.595410   -0.582128
  H      0.161671    0.781232    1.250249
  H      1.282617   -4.345246   -1.376696
  H      4.282812   -1.075359   -0.734558
  H      2.247123    2.053362    1.360271

----------------------------
CARTESIAN COORDINATES (A.U.)
----------------------------
  NO LB      ZA    FRAG     MASS         X           Y           Z
   0 Cl   17.0000    0    35.453    9.136811    2.856743    0.697544
   1 N     7.0000    0    14.007   -3.944690    3.121823   -0.528954
   2 N     7.0000    0    14.007   -2.640720   -2.107347    0.738225
   3 N     7.0000    0    14.007    4.297187   -4.977323   -1.771955
   4 C     6.0000    0    12.011   -7.203979   -1.603781    0.700341
   5 C     6.0000    0    12.011   -7.297405    0.037555   -1.692232
   6 C     6.0000    0    12.011   -5.003533   -3.477549    0.734363
   7 C     6.0000    0    12.011   -6.595227    2.805944   -1.219864
   8 C     6.0000    0    12.011   -5.156849   -5.172373    3.078872
   9 C     6.0000    0    12.011   -3.528423    5.163600    1.275774
  10 C     6.0000    0    12.011   -2.283370    3.271115   -2.726636
  11 C     6.0000    0    12.011   -0.397413   -3.094078    0.012933
  12 C     6.0000    0    12.011    1.872299   -1.626959    0.247566
  13 C     6.0000    0    12.011   -4.280648    4.406991    3.957332
  14 C     6.0000    0    12.011   -2.405072    5.716039   -4.270713
  15 C     6.0000    0    12.011   -0.121125   -5.528654   -0.944804
  16 C     6.0000    0    12.011    4.151804   -2.658339   -0.733365
  17 C     6.0000    0    12.011    1.976658    0.731495    1.466389
  18 C     6.0000    0    12.011    2.230855   -6.335984   -1.802682
  19 C     6.0000    0    12.011    6.396943   -1.225500   -0.601466
  20 C     6.0000    0    12.011    4.180426    2.079925    1.616024
  21 C     6.0000    0    12.011    6.384708    1.094471    0.530681
  22 H     1.0000    0     1.008   -8.950595   -2.686200    0.866803
  23 H     1.0000    0     1.008   -7.061997   -0.399311    2.366960
  24 H     1.0000    0     1.008   -9.206646    0.015930   -2.472071
  25 H     1.0000    0     1.008   -6.044987   -0.753519   -3.125731
  26 H     1.0000    0     1.008   -5.130415   -4.668883   -0.963754
  27 H     1.0000    0     1.008   -7.070999    3.908122   -2.915069
  28 H     1.0000    0     1.008   -7.772273    3.521805    0.314941
  29 H     1.0000    0     1.008   -2.812588   -0.195227    0.823956
  30 H     1.0000    0     1.008   -5.153884   -4.019839    4.780134
  31 H     1.0000    0     1.008   -3.539785   -6.435913    3.153471
  32 H     1.0000    0     1.008   -6.873836   -6.298759    3.044109
  33 H     1.0000    0     1.008   -1.511484    5.605254    1.258407
  34 H     1.0000    0     1.008   -4.560492    6.890141    0.743134
  35 H     1.0000    0     1.008   -0.343335    3.006618   -2.062334
  36 H     1.0000    0     1.008   -2.740901    1.674414   -3.952838
  37 H     1.0000    0     1.008   -3.313405    2.686132    4.529453
  38 H     1.0000    0     1.008   -3.765947    5.908090    5.262101
  39 H     1.0000    0     1.008   -6.305461    4.094583    4.115101
  40 H     1.0000    0     1.008   -4.302644    6.071039   -4.976622
  41 H     1.0000    0     1.008   -1.813685    7.329230   -3.144599
  42 H     1.0000    0     1.008   -1.142190    5.555244   -5.881725
  43 H     1.0000    0     1.008   -1.708531   -6.794340   -1.100062
  44 H     1.0000    0     1.008    0.305514    1.476315    2.362627
  45 H     1.0000    0     1.008    2.423794   -8.211324   -2.601579
  46 H     1.0000    0     1.008    8.093342   -2.032135   -1.388114
  47 H     1.0000    0     1.008    4.246447    3.880293    2.570539

--------------------------------
INTERNAL COORDINATES (ANGSTROEM)
--------------------------------
 Cl     0   0   0     0.000000000000     0.00000000     0.00000000
 N      1   0   0     6.954206776985     0.00000000     0.00000000
 N      2   1   0     2.929668369457    74.04571617     0.00000000
 N      3   2   1     4.189276231906   118.44123466   328.28401451
 C      3   2   1     2.429514227288    70.14808646   173.78595616
 C      5   3   2     1.536174618230    95.78544544    41.94403199
 C      3   2   1     1.445376367683   105.64954474   182.00108965
 C      2   1   3     1.459078838573   167.95312444   297.69144724
 C      7   3   2     1.533031155049   109.76220651   225.59212033
 C      2   1   3     1.458762008019    78.66908792   127.06248723
 C      2   1   3     1.459999574667    58.40166297   253.27833112
 C      3   2   1     1.352471027413   120.42695813   329.70137466
 C     12   3   2     1.435532722504   120.06862950    42.78089543
 C     10   2   1     1.527210358699   112.00973392   254.62116266
 C     11   2   1     1.531567069912   116.44573062   243.35230002
 C     12   3   2     1.392123445596   123.55820630   221.81283348
 C      4   3   2     1.346804811045    59.35128724    44.68032842
 C     13  12   3     1.405931945948   123.54744537     7.36897852
 C      4   3   2     1.308751223445    58.05453702   220.03898949
 C     17   4   3     1.411135583161   117.49501765   181.89739856
 C     18  13  12     1.369459914490   121.50072404   180.85583588
 C     20  17   4     1.366073694387   120.03850041   182.81897454
 H      5   3   2     1.090927818616   141.61320968   174.16530190
 H      5   3   2     1.090737766520    89.36721688   292.13621419
 H      6   5   3     1.091416862950   109.60266116   161.38976861
 H      6   5   3     1.090832895109   109.67074776    43.97774624
 H      7   3   2     1.099743721198   109.97095468   105.89827113
 H      8   2  10     1.099221712190   111.33894362    92.17373177
 H      8   2  10     1.091378407313   108.80717437   334.48227603
 H      3   2   1     1.016941901546    18.07451770    58.38456941
 H      9   7   3     1.087409060651   109.98723432    63.15726554
 H      9   7   3     1.086681988031   110.34621339   303.74346664
 H      9   7   3     1.086811839085   110.57296532   183.38470070
 H     10   2   1     1.092645448253   107.48309124    13.79686117
 H     10   2   1     1.101123299464   111.84428496   131.87112995
 H     11   2   1     1.094129595985   107.58665205     5.44723877
 H     11   2   1     1.092512045981   107.32580961   120.81066765
 H     14  10   2     1.087615403675   110.82332369    54.75503470
 H     14  10   2     1.087151673264   109.46652994   174.37464425
 H     14  10   2     1.087373629755   111.59449865   293.88657170
 H     15  11   2     1.087727859789   111.58797470   301.64793033
 H     15  11   2     1.087102461339   111.02680478    62.90870573
 H     15  11   2     1.086565354481   109.06038379   182.20477468
 H     16  12   3     1.077486982303   121.40870564   357.89750150
 H     18  13  12     1.078109520875   119.61161023     2.98815123
 H     19   4   3     1.083504272302   115.42174538   177.20079812
 H     20  17   4     1.077657675868   117.99528426     1.89275146
 H     21  18  13     1.078896279645   120.98120467   180.58311708

---------------------------
INTERNAL COORDINATES (A.U.)
---------------------------
 Cl     0   0   0     0.000000000000     0.00000000     0.00000000
 N      1   0   0    13.141546287160     0.00000000     0.00000000
 N      2   1   0     5.536270881485    74.04571617     0.00000000
 N      3   2   1     7.916584777648   118.44123466   328.28401451
 C      3   2   1     4.591116528039    70.14808646   173.78595616
 C      5   3   2     2.902949322336    95.78544544    41.94403199
 C      3   2   1     2.731365495362   105.64954474   182.00108965
 C      2   1   3     2.757259412702   167.95312444   297.69144724
 C      7   3   2     2.897009037812   109.76220651   225.59212033
 C      2   1   3     2.756660689725    78.66908792   127.06248723
 C      2   1   3     2.758999351762    58.40166297   253.27833112
 C      3   2   1     2.555799845873   120.42695813   329.70137466
 C     12   3   2     2.712763701815   120.06862950    42.78089543
 C     10   2   1     2.886009326829   112.00973392   254.62116266
 C     11   2   1     2.894242317866   116.44573062   243.35230002
 C     12   3   2     2.630732056787   123.55820630   221.81283348
 C      4   3   2     2.545092248722    59.35128724    44.68032842
 C     13  12   3     2.656826340772   123.54744537     7.36897852
 C      4   3   2     2.473181389745    58.05453702   220.03898949
 C     17   4   3     2.666659790005   117.49501765   181.89739856
 C     18  13  12     2.587904189769   121.50072404   180.85583588
 C     20  17   4     2.581505161146   120.03850041   182.81897454
 H      5   3   2     2.061554809061   141.61320968   174.16530190
 H      5   3   2     2.061195662648    89.36721688   292.13621419
 H      6   5   3     2.062478968918   109.60266116   161.38976861
 H      6   5   3     2.061375429629   109.67074776    43.97774624
 H      7   3   2     2.078214450563   109.97095468   105.89827113
 H      8   2  10     2.077227996499   111.33894362    92.17373177
 H      8   2  10     2.062406298297   108.80717437   334.48227603
 H      3   2   1     1.921741688031    18.07451770    58.38456941
 H      9   7   3     2.054905320175   109.98723432    63.15726554
 H      9   7   3     2.053531352043   110.34621339   303.74346664
 H      9   7   3     2.053776734974   110.57296532   183.38470070
 H     10   2   1     2.064800658673   107.48309124    13.79686117
 H     10   2   1     2.080821475667   111.84428496   131.87112995
 H     11   2   1     2.067605291429   107.58665205     5.44723877
 H     11   2   1     2.064548564914   107.32580961   120.81066765
 H     14  10   2     2.055295251980   110.82332369    54.75503470
 H     14  10   2     2.054418928502   109.46652994   174.37464425
 H     14  10   2     2.054838365485   111.59449865   293.88657170
 H     15  11   2     2.055507763238   111.58797470   301.64793033
 H     15  11   2     2.054325931442   111.02680478    62.90870573
 H     15  11   2     2.053310946575   109.06038379   182.20477468
 H     16  12   3     2.036155309418   121.40870564   357.89750150
 H     18  13  12     2.037331736827   119.61161023     2.98815123
 H     19   4   3     2.047526339584   115.42174538   177.20079812
 H     20  17   4     2.036477873509   117.99528426     1.89275146
 H     21  18  13     2.038818495436   120.98120467   180.58311708

---------------------
BASIS SET INFORMATION
---------------------
There are 4 groups of distinct atoms

 Group   1 Type Cl  : 14s9p1d contracted to 5s4p1d pattern {73211/6111/1}
 Group   2 Type N   : 11s6p1d contracted to 5s3p1d pattern {62111/411/1}
 Group   3 Type C   : 11s6p1d contracted to 5s3p1d pattern {62111/411/1}
 Group   4 Type H   : 5s contracted to 3s pattern {311}

Atom   0Cl   basis set group =>   1
Atom   1N    basis set group =>   2
Atom   2N    basis set group =>   2
Atom   3N    basis set group =>   2
Atom   4C    basis set group =>   3
Atom   5C    basis set group =>   3
Atom   6C    basis set group =>   3
Atom   7C    basis set group =>   3
Atom   8C    basis set group =>   3
Atom   9C    basis set group =>   3
Atom  10C    basis set group =>   3
Atom  11C    basis set group =>   3
Atom  12C    basis set group =>   3
Atom  13C    basis set group =>   3
Atom  14C    basis set group =>   3
Atom  15C    basis set group =>   3
Atom  16C    basis set group =>   3
Atom  17C    basis set group =>   3
Atom  18C    basis set group =>   3
Atom  19C    basis set group =>   3
Atom  20C    basis set group =>   3
Atom  21C    basis set group =>   3
Atom  22H    basis set group =>   4
Atom  23H    basis set group =>   4
Atom  24H    basis set group =>   4
Atom  25H    basis set group =>   4
Atom  26H    basis set group =>   4
Atom  27H    basis set group =>   4
Atom  28H    basis set group =>   4
Atom  29H    basis set group =>   4
Atom  30H    basis set group =>   4
Atom  31H    basis set group =>   4
Atom  32H    basis set group =>   4
Atom  33H    basis set group =>   4
Atom  34H    basis set group =>   4
Atom  35H    basis set group =>   4
Atom  36H    basis set group =>   4
Atom  37H    basis set group =>   4
Atom  38H    basis set group =>   4
Atom  39H    basis set group =>   4
Atom  40H    basis set group =>   4
Atom  41H    basis set group =>   4
Atom  42H    basis set group =>   4
Atom  43H    basis set group =>   4
Atom  44H    basis set group =>   4
Atom  45H    basis set group =>   4
Atom  46H    basis set group =>   4
Atom  47H    basis set group =>   4
---------------------------------
AUXILIARY/J BASIS SET INFORMATION
---------------------------------
There are 4 groups of distinct atoms

 Group   1 Type Cl  : 14s5p5d2f1g contracted to 8s4p3d1f1g pattern {71111111/2111/311/2/1}
 Group   2 Type N   : 8s3p3d contracted to 6s3p3d pattern {311111/111/111}
 Group   3 Type C   : 8s3p3d contracted to 6s3p3d pattern {311111/111/111}
 Group   4 Type H   : 5s2p contracted to 3s1p pattern {311/2}

Atom   0Cl   basis set group =>   1
Atom   1N    basis set group =>   2
Atom   2N    basis set group =>   2
Atom   3N    basis set group =>   2
Atom   4C    basis set group =>   3
Atom   5C    basis set group =>   3
Atom   6C    basis set group =>   3
Atom   7C    basis set group =>   3
Atom   8C    basis set group =>   3
Atom   9C    basis set group =>   3
Atom  10C    basis set group =>   3
Atom  11C    basis set group =>   3
Atom  12C    basis set group =>   3
Atom  13C    basis set group =>   3
Atom  14C    basis set group =>   3
Atom  15C    basis set group =>   3
Atom  16C    basis set group =>   3
Atom  17C    basis set group =>   3
Atom  18C    basis set group =>   3
Atom  19C    basis set group =>   3
Atom  20C    basis set group =>   3
Atom  21C    basis set group =>   3
Atom  22H    basis set group =>   4
Atom  23H    basis set group =>   4
Atom  24H    basis set group =>   4
Atom  25H    basis set group =>   4
Atom  26H    basis set group =>   4
Atom  27H    basis set group =>   4
Atom  28H    basis set group =>   4
Atom  29H    basis set group =>   4
Atom  30H    basis set group =>   4
Atom  31H    basis set group =>   4
Atom  32H    basis set group =>   4
Atom  33H    basis set group =>   4
Atom  34H    basis set group =>   4
Atom  35H    basis set group =>   4
Atom  36H    basis set group =>   4
Atom  37H    basis set group =>   4
Atom  38H    basis set group =>   4
Atom  39H    basis set group =>   4
Atom  40H    basis set group =>   4
Atom  41H    basis set group =>   4
Atom  42H    basis set group =>   4
Atom  43H    basis set group =>   4
Atom  44H    basis set group =>   4
Atom  45H    basis set group =>   4
Atom  46H    basis set group =>   4
Atom  47H    basis set group =>   4


           ************************************************************
           *        Program running with 16 parallel MPI-processes    *
           *              working on a common directory               *
           ************************************************************
------------------------------------------------------------------------------
                             ORCA STARTUP CALCULATIONS
                           -- RI-GTO INTEGRALS CHOSEN --
------------------------------------------------------------------------------
------------------------------------------------------------------------------
                   ___                                                        
                  /   \      - P O W E R E D   B Y -                         
                 /     \                                                     
                 |  |  |   _    _      __       _____    __    __             
                 |  |  |  | |  | |    /  \     |  _  \  |  |  /  |          
                  \  \/   | |  | |   /    \    | | | |  |  | /  /          
                 / \  \   | |__| |  /  /\  \   | |_| |  |  |/  /          
                |  |  |   |  __  | /  /__\  \  |    /   |      \           
                |  |  |   | |  | | |   __   |  |    \   |  |\   \          
                \     /   | |  | | |  |  |  |  | |\  \  |  | \   \       
                 \___/    |_|  |_| |__|  |__|  |_| \__\ |__|  \__/        
                                                                              
                      - O R C A' S   B I G   F R I E N D -                    
                                      &                                       
                       - I N T E G R A L  F E E D E R -                       
                                                                              
 v1 FN, 2020, v2 2021, v3 2022-2024                                           
------------------------------------------------------------------------------


----------------------
SHARK INTEGRAL PACKAGE
----------------------

Number of atoms                             ...     48
Number of basis functions                   ...    499
Number of shells                            ...    277
Maximum angular momentum                    ...      2
Integral batch strategy                     ... SHARK/LIBINT Hybrid
RI-J (if used) integral strategy            ... SPLIT-RIJ (Revised 2003 algorithm where possible)
Printlevel                                  ...      1
Contraction scheme used                     ... SEGMENTED contraction
Prescreening option                         ... SCHWARTZ
   Thresh                                   ... 2.500e-11
   Tcut                                     ... 2.500e-12
   Tpresel                                  ... 2.500e-12 
Coulomb Range Separation                    ... NOT USED
Exchange Range Separation                   ... NOT USED
Multipole approximations                    ... NOT USED
Finite Nucleus Model                        ... NOT USED
CABS basis                                  ... NOT available
Auxiliary Coulomb fitting basis             ... AVAILABLE
   # of basis functions in Aux-J            ...    837
   # of shells in Aux-J                     ...    373
   Maximum angular momentum in Aux-J        ...      4
Auxiliary J/K fitting basis                 ... NOT available
Auxiliary Correlation fitting basis         ... NOT available
Auxiliary 'external' fitting basis          ... NOT available

Checking pre-screening integrals            ... done (  0.0 sec) Dimension = 277
Check shell pair data                       ... done (  0.0 sec)
Shell pair information
Shell pair cut-off parameter TPreSel        ...   2.5e-12
Total number of shell pairs                 ...     38503
Shell pairs after pre-screening             ...     29347
Total number of primitive shell pairs       ...    142358
Primitive shell pairs kept                  ...     67631
          la=0 lb=0:  12954 shell pairs
          la=1 lb=0:  10285 shell pairs
          la=1 lb=1:   2022 shell pairs
          la=2 lb=0:   2756 shell pairs
          la=2 lb=1:   1174 shell pairs
          la=2 lb=2:    156 shell pairs

Calculating one electron integrals          ... done (  0.1 sec)
Calculating RI/J V-Matrix + Cholesky decomp.... done (  0.1 sec)
Calculating Nuclear repulsion               ... done (  0.0 sec) ENN=   2025.371725086444 Eh

Diagonalization of the overlap matrix:
Smallest eigenvalue                        ... 7.145e-06
Time for diagonalization                   ...    0.045 sec
Threshold for overlap eigenvalues          ... 1.000e-07
Number of eigenvalues below threshold      ... 0
Time for construction of square roots      ...    0.015 sec
Total time needed                          ...    0.062 sec

-------------------
DFT GRID GENERATION
-------------------

General Integration Accuracy     IntAcc      ... 4.959
Radial Grid Type                 RadialGrid  ... OptM3 with GC (2021)
Angular Grid (max. ang.)         AngularGrid ... 6 (Lebedev-590)
Angular grid pruning method      GridPruning ... 4 (adaptive)
Weight generation scheme         WeightScheme... mBecke (2022)
Basis function cutoff            BFCut       ... 1.0000e-11
Integration weight cutoff        WCut        ... 1.0000e-14
Partially contracted basis set               ... off
Rotationally invariant grid construction     ... off
Angular grids for H and He will be reduced by one unit

Total number of grid points                  ...   529205
Total number of batches                      ...     8289
Average number of points per batch           ...       63
Average number of grid points per atom       ...    11025
Initializing property integral containers    ... done (  0.0 sec)

SHARK setup successfully completed in   4.4 seconds

Maximum memory used throughout the entire STARTUP-calculation: 132.9 MB


           ************************************************************
           *        Program running with 16 parallel MPI-processes    *
           *              working on a common directory               *
           ************************************************************
-------------------------------------------------------------------------------
                                 ORCA GUESS
                   Start orbitals & Density for SCF / CASSCF
-------------------------------------------------------------------------------

------------
SCF SETTINGS
------------
Hamiltonian:
 Density Functional     Method          .... DFT(GTOs)
 Exchange Functional    Exchange        .... B973C
 Correlation Functional Correlation     .... B973C
 Gradients option       PostSCFGGA      .... off
 RI-approximation to the Coulomb term is turned on
   Number of AuxJ basis functions       .... 837


General Settings:
 Integral files         IntName         .... m1_00_Chloroquine-GitHubGFN2-B97-3C-TZ
 Hartree-Fock type      HFTyp           .... RHF
 Total Charge           Charge          ....    0
 Multiplicity           Mult            ....    1
 Number of Electrons    NEL             ....  172
 Basis Dimension        Dim             ....  499
 Nuclear Repulsion      ENuc            ....   2025.3717250864 Eh

Convergence Acceleration:
 AO-DIIS                CNVDIIS         .... on
   Start iteration      DIISMaxIt       ....    12
   Startup error        DIISStart       ....  0.200000
   # of expansion vecs  DIISMaxEq       ....     5
   Bias factor          DIISBfac        ....   1.050
   Max. coefficient     DIISMaxC        ....  10.000
 MO-DIIS                CNVKDIIS        .... off
 Trust-Rad. Augm. Hess. CNVTRAH         .... off
 SOSCF                  CNVSOSCF        .... on
   Start iteration      SOSCFMaxIt      ....   150
   Startup grad/error   SOSCFStart      ....  0.003300
   Hessian update       SOSCFHessUp     .... L-BFGS
 Level Shifting         CNVShift        .... on
   Level shift para.    LevelShift      ....    0.2500
   Turn off err/grad.   ShiftErr        ....    0.0010
 Zerner damping         CNVZerner       .... off
 Static damping         CNVDamp         .... on
   Fraction old density DampFac         ....    0.7000
   Max. Damping (<1)    DampMax         ....    0.9800
   Min. Damping (>=0)   DampMin         ....    0.0000
   Turn off err/grad.   DampErr         ....    0.1000

SCF Procedure:
 Maximum # iterations   MaxIter         ....   800
 SCF integral mode      SCFMode         .... Direct
   Integral package                     .... SHARK and LIBINT hybrid scheme
 Reset frequency        DirectResetFreq ....    20
 Integral Threshold     Thresh          ....  2.500e-11 Eh
 Primitive CutOff       TCut            ....  2.500e-12 Eh

Convergence Tolerance:
 Convergence Check Mode ConvCheckMode   .... Total+1el-Energy
 Convergence forced     ConvForced      .... 0
 Energy Change          TolE            ....  1.000e-08 Eh
 1-El. energy change                    ....  1.000e-05 Eh
 Orbital Gradient       TolG            ....  1.000e-05
 Orbital Rotation angle TolX            ....  1.000e-05
 DIIS Error             TolErr          ....  5.000e-07

--------------------------------
INITIAL GUESS: MINIMAL BASIS EHT
--------------------------------
The minimal basis has 140 functions
EHT matrix was diagonalized
Basis set overlap was calculated now projecting the orbitals
Using GuessMode=FMatrix for the initial guess
C*T matrix was formed
Effective Fockian was calculated
Effective Fockian was diagonalized
Initial density was built
                      ------------------
                      INITIAL GUESS DONE
                      ------------------
             **** ENERGY FILE WAS UPDATED (m1_00_Chloroquine-GitHubGFN2-B97-3C-TZ.en.tmp) ****
Finished Guess after   0.3 sec
Maximum memory used throughout the entire GUESS-calculation: 49.9 MB


           ************************************************************
           *        Program running with 16 parallel MPI-processes    *
           *              working on a common directory               *
           ************************************************************

-------------------------------------------------------------------------------------------
                                      ORCA LEAN-SCF
                              memory conserving SCF solver
-------------------------------------------------------------------------------------------

----------------------------------------D-I-I-S--------------------------------------------
Iteration    Energy (Eh)           Delta-E    RMSDP     MaxDP     DIISErr   Damp  Time(sec)
-------------------------------------------------------------------------------------------
               ***  Starting incremental Fock matrix formation  ***
    1    -1322.6573939554953085     0.00e+00  6.61e-03  3.44e-01  1.06e+00  0.700   1.2
Warning: op=0 Small HOMO/LUMO gap (   0.053) - skipping pre-diagonalization
         Will do a full diagonalization
    2    -1323.5231617222991645    -8.66e-01  7.10e-03  4.07e-01  7.32e-01  0.700   1.2
    3    -1324.0567759485095394    -5.34e-01  3.40e-03  1.74e-01  5.02e-01  0.700   1.1
    4    -1324.4250844459622840    -3.68e-01  2.99e-03  1.91e-01  3.48e-01  0.700   1.1
    5    -1324.6863226207713069    -2.61e-01  2.58e-03  1.87e-01  2.42e-01  0.700   1.1
                               ***Turning on AO-DIIS***
    6    -1324.8691307625942954    -1.83e-01  2.00e-03  1.46e-01  1.69e-01  0.700   1.1
    7    -1324.9968703845258915    -1.28e-01  1.21e-03  8.41e-02  1.18e-01  0.700   1.1
    8    -1325.0864393672370625    -8.96e-02  8.36e-04  5.80e-02  8.28e-02  0.700   1.1
    9    -1325.1491942919431040    -6.28e-02  2.17e-03  1.59e-01  5.79e-02  0.000   1.1
   10    -1325.2957297408536306    -1.47e-01  2.47e-04  1.63e-02  3.84e-03  0.000   1.1
   11    -1325.2957259632096338     3.78e-06  8.19e-05  6.65e-03  4.32e-03  0.000   1.1
                              *** Initializing SOSCF ***
---------------------------------------S-O-S-C-F--------------------------------------
Iteration    Energy (Eh)           Delta-E    RMSDP     MaxDP     MaxGrad    Time(sec)
--------------------------------------------------------------------------------------
   12    -1325.2957795241215990    -5.36e-05  4.58e-05  3.18e-03  9.96e-04     1.1
               *** Restarting incremental Fock matrix formation ***
   13    -1325.2957855450092666    -6.02e-06  4.82e-05  3.80e-03  1.42e-04     1.2
   14    -1325.2957832276263161     2.32e-06  4.75e-05  3.39e-03  3.42e-04     1.0
   15    -1325.2957859732780435    -2.75e-06  1.92e-05  1.51e-03  3.19e-05     1.0
   16    -1325.2957858048350772     1.68e-07  7.67e-06  4.79e-04  6.25e-05     1.0
   17    -1325.2957860084632102    -2.04e-07  2.23e-05  1.86e-03  7.61e-06     1.0
   18    -1325.2957859639525395     4.45e-08  7.42e-06  4.31e-04  1.29e-05     1.0
   19    -1325.2957859681348509    -4.18e-09  3.06e-05  2.32e-03  1.90e-06     1.0
                 **** Energy Check signals convergence ****

               *****************************************************
               *                     SUCCESS                       *
               *           SCF CONVERGED AFTER  19 CYCLES          *
               *****************************************************

             **** ENERGY FILE WAS UPDATED (m1_00_Chloroquine-GitHubGFN2-B97-3C-TZ.en.tmp) ****

----------------
TOTAL SCF ENERGY
----------------

Total Energy       :      -1325.29578596813485 Eh          -36063.13175 eV

Components:
Nuclear Repulsion  :       2025.37172508644403 Eh           55113.16654 eV
Electronic Energy  :      -3350.66751105457888 Eh          -91176.29829 eV
One Electron Energy:      -5833.41908291497111 Eh         -158735.40320 eV
Two Electron Energy:       2482.75157186039223 Eh           67559.10491 eV

Virial components:
Potential Energy   :      -2646.79692990744388 Eh          -72023.00604 eV
Kinetic Energy     :       1321.50114393930880 Eh           35959.87429 eV
Virial Ratio       :          2.00287146329478

DFT components:
N(Alpha)           :       86.000010635668 electrons
N(Beta)            :       86.000010635668 electrons
N(Total)           :      172.000021271336 electrons
E(XC)              :     -155.836150063593 Eh       

---------------
SCF CONVERGENCE
---------------

  Last Energy change         ...    4.1823e-09  Tolerance :   1.0000e-08
  Last MAX-Density change    ...    2.3215e-03  Tolerance :   1.0000e-07
  Last RMS-Density change    ...    3.0639e-05  Tolerance :   5.0000e-09
  Last DIIS Error            ...    9.9589e-04  Tolerance :   5.0000e-07
  Last Orbital Gradient      ...    1.8982e-06  Tolerance :   1.0000e-05
  Last Orbital Rotation      ...    9.2048e-06  Tolerance :   1.0000e-05


----------------
ORBITAL ENERGIES
----------------

  NO   OCC          E(Eh)            E(eV) 
   0   2.0000    -100.633369     -2738.3732 
   1   2.0000     -13.999733      -380.9521 
   2   2.0000     -13.998126      -380.9084 
   3   2.0000     -13.955190      -379.7400 
   4   2.0000      -9.949605      -270.7425 
   5   2.0000      -9.942248      -270.5423 
   6   2.0000      -9.936322      -270.3811 
   7   2.0000      -9.928298      -270.1627 
   8   2.0000      -9.926035      -270.1011 
   9   2.0000      -9.921023      -269.9648 
  10   2.0000      -9.920137      -269.9406 
  11   2.0000      -9.911522      -269.7062 
  12   2.0000      -9.902482      -269.4602 
  13   2.0000      -9.901643      -269.4374 
  14   2.0000      -9.900444      -269.4048 
  15   2.0000      -9.900044      -269.3939 
  16   2.0000      -9.899200      -269.3709 
  17   2.0000      -9.893813      -269.2243 
  18   2.0000      -9.891004      -269.1479 
  19   2.0000      -9.886534      -269.0263 
  20   2.0000      -9.884278      -268.9649 
  21   2.0000      -9.882224      -268.9090 
  22   2.0000      -9.219537      -250.8764 
  23   2.0000      -7.055862      -191.9998 
  24   2.0000      -7.043183      -191.6548 
  25   2.0000      -7.042532      -191.6370 
  26   2.0000      -0.881652       -23.9910 
  27   2.0000      -0.867894       -23.6166 
  28   2.0000      -0.854945       -23.2642 
  29   2.0000      -0.813204       -22.1284 
  30   2.0000      -0.762887       -20.7592 
  31   2.0000      -0.746517       -20.3138 
  32   2.0000      -0.716267       -19.4906 
  33   2.0000      -0.709350       -19.3024 
  34   2.0000      -0.694279       -18.8923 
  35   2.0000      -0.677782       -18.4434 
  36   2.0000      -0.668653       -18.1950 
  37   2.0000      -0.662982       -18.0407 
  38   2.0000      -0.627380       -17.0719 
  39   2.0000      -0.587072       -15.9750 
  40   2.0000      -0.585759       -15.9393 
  41   2.0000      -0.578849       -15.7513 
  42   2.0000      -0.566532       -15.4161 
  43   2.0000      -0.549321       -14.9478 
  44   2.0000      -0.533543       -14.5184 
  45   2.0000      -0.511642       -13.9225 
  46   2.0000      -0.496587       -13.5128 
  47   2.0000      -0.473297       -12.8791 
  48   2.0000      -0.463434       -12.6107 
  49   2.0000      -0.457760       -12.4563 
  50   2.0000      -0.448329       -12.1997 
  51   2.0000      -0.438707       -11.9378 
  52   2.0000      -0.429445       -11.6858 
  53   2.0000      -0.418804       -11.3962 
  54   2.0000      -0.412066       -11.2129 
  55   2.0000      -0.403740       -10.9863 
  56   2.0000      -0.395958       -10.7746 
  57   2.0000      -0.391269       -10.6470 
  58   2.0000      -0.387800       -10.5526 
  59   2.0000      -0.384173       -10.4539 
  60   2.0000      -0.379467       -10.3258 
  61   2.0000      -0.372834       -10.1453 
  62   2.0000      -0.368088       -10.0162 
  63   2.0000      -0.362023        -9.8511 
  64   2.0000      -0.361203        -9.8288 
  65   2.0000      -0.353823        -9.6280 
  66   2.0000      -0.350559        -9.5392 
  67   2.0000      -0.341307        -9.2874 
  68   2.0000      -0.336569        -9.1585 
  69   2.0000      -0.331920        -9.0320 
  70   2.0000      -0.327929        -8.9234 
  71   2.0000      -0.325648        -8.8613 
  72   2.0000      -0.320380        -8.7180 
  73   2.0000      -0.315832        -8.5942 
  74   2.0000      -0.310747        -8.4558 
  75   2.0000      -0.304494        -8.2857 
  76   2.0000      -0.300641        -8.1809 
  77   2.0000      -0.296218        -8.0605 
  78   2.0000      -0.287954        -7.8356 
  79   2.0000      -0.276403        -7.5213 
  80   2.0000      -0.267713        -7.2848 
  81   2.0000      -0.226467        -6.1625 
  82   2.0000      -0.211718        -5.7611 
  83   2.0000      -0.201169        -5.4741 
  84   2.0000      -0.198166        -5.3924 
  85   2.0000      -0.176615        -4.8059 
  86   0.0000      -0.064994        -1.7686 
  87   0.0000      -0.039477        -1.0742 
  88   0.0000      -0.001085        -0.0295 
  89   0.0000       0.006854         0.1865 
  90   0.0000       0.015844         0.4311 
  91   0.0000       0.022441         0.6106 
  92   0.0000       0.025440         0.6922 
  93   0.0000       0.036759         1.0003 
  94   0.0000       0.046758         1.2723 
  95   0.0000       0.050827         1.3831 
  96   0.0000       0.052971         1.4414 
*Only the first 10 virtual orbitals were printed.

                    ********************************
                    * MULLIKEN POPULATION ANALYSIS *
                    ********************************

-----------------------
MULLIKEN ATOMIC CHARGES
-----------------------
   0 Cl:   -0.137809
   1 N :   -0.142104
   2 N :   -0.271528
   3 N :   -0.053150
   4 C :   -0.294858
   5 C :   -0.241046
   6 C :   -0.280567
   7 C :   -0.415097
   8 C :   -0.415014
   9 C :   -0.393348
  10 C :   -0.328667
  11 C :    0.175104
  12 C :   -0.162548
  13 C :   -0.443357
  14 C :   -0.481608
  15 C :   -0.237252
  16 C :    0.140057
  17 C :   -0.050753
  18 C :   -0.149160
  19 C :   -0.288668
  20 C :   -0.239738
  21 C :    0.061848
  22 H :    0.179316
  23 H :    0.152478
  24 H :    0.172682
  25 H :    0.174984
  26 H :    0.191265
  27 H :    0.161580
  28 H :    0.207214
  29 H :    0.286607
  30 H :    0.152492
  31 H :    0.186856
  32 H :    0.157573
  33 H :    0.199292
  34 H :    0.177489
  35 H :    0.231477
  36 H :    0.170528
  37 H :    0.179079
  38 H :    0.173667
  39 H :    0.158563
  40 H :    0.164446
  41 H :    0.174233
  42 H :    0.179539
  43 H :    0.184747
  44 H :    0.136855
  45 H :    0.136472
  46 H :    0.180106
  47 H :    0.179721
Sum of atomic charges:   -0.0000000

--------------------------------
MULLIKEN REDUCED ORBITAL CHARGES
--------------------------------
  0 Cls       :     5.940457  s :     5.940457
      pz      :     3.927049  p :    11.151422
      px      :     3.473619
      py      :     3.750754
      dz2     :     0.006335  d :     0.045931
      dxz     :     0.008331
      dyz     :     0.003527
      dx2y2   :     0.010663
      dxy     :     0.017075

  1 N s       :     3.385737  s :     3.385737
      pz      :     1.170389  p :     3.708511
      px      :     1.078740
      py      :     1.459382
      dz2     :     0.009139  d :     0.047856
      dxz     :     0.012111
      dyz     :     0.008949
      dx2y2   :     0.011842
      dxy     :     0.005815

  2 N s       :     3.293618  s :     3.293618
      pz      :     1.622167  p :     3.936136
      px      :     1.142653
      py      :     1.171316
      dz2     :     0.004809  d :     0.041775
      dxz     :     0.007245
      dyz     :     0.002419
      dx2y2   :     0.016487
      dxy     :     0.010815

  3 N s       :     3.421843  s :     3.421843
      pz      :     1.204715  p :     3.584942
      px      :     1.339279
      py      :     1.040948
      dz2     :     0.005707  d :     0.046365
      dxz     :     0.007146
      dyz     :     0.008402
      dx2y2   :     0.013882
      dxy     :     0.011228

  4 C s       :     3.176067  s :     3.176067
      pz      :     1.015219  p :     3.075186
      px      :     1.047731
      py      :     1.012236
      dz2     :     0.009911  d :     0.043605
      dxz     :     0.003450
      dyz     :     0.012990
      dx2y2   :     0.005269
      dxy     :     0.011984

  5 C s       :     3.137336  s :     3.137336
      pz      :     0.980223  p :     3.060672
      px      :     1.141817
      py      :     0.938632
      dz2     :     0.006535  d :     0.043037
      dxz     :     0.010029
      dyz     :     0.010504
      dx2y2   :     0.010887
      dxy     :     0.005082

  6 C s       :     3.279807  s :     3.279807
      pz      :     1.068790  p :     2.936994
      px      :     0.893219
      py      :     0.974986
      dz2     :     0.011839  d :     0.063766
      dxz     :     0.008781
      dyz     :     0.016926
      dx2y2   :     0.010387
      dxy     :     0.015833

  7 C s       :     3.287140  s :     3.287140
      pz      :     1.179996  p :     3.071503
      px      :     0.867078
      py      :     1.024428
      dz2     :     0.007218  d :     0.056454
      dxz     :     0.012408
      dyz     :     0.011202
      dx2y2   :     0.013345
      dxy     :     0.012281

  8 C s       :     3.204501  s :     3.204501
      pz      :     0.992701  p :     3.173687
      px      :     1.124372
      py      :     1.056613
      dz2     :     0.010181  d :     0.036827
      dxz     :     0.001317
      dyz     :     0.010303
      dx2y2   :     0.002786
      dxy     :     0.012240

  9 C s       :     3.302188  s :     3.302188
      pz      :     0.926875  p :     3.034579
      px      :     1.151838
      py      :     0.955866
      dz2     :     0.016228  d :     0.056581
      dxz     :     0.005739
      dyz     :     0.013350
      dx2y2   :     0.012807
      dxy     :     0.008457

 10 C s       :     3.233851  s :     3.233851
      pz      :     0.930887  p :     3.038524
      px      :     1.070238
      py      :     1.037399
      dz2     :     0.008288  d :     0.056291
      dxz     :     0.012241
      dyz     :     0.016981
      dx2y2   :     0.013722
      dxy     :     0.005060

 11 C s       :     3.157234  s :     3.157234
      pz      :     0.891930  p :     2.600087
      px      :     0.858764
      py      :     0.849393
      dz2     :     0.008041  d :     0.067574
      dxz     :     0.014035
      dyz     :     0.008730
      dx2y2   :     0.017496
      dxy     :     0.019273

 12 C s       :     3.330489  s :     3.330489
      pz      :     0.902926  p :     2.785244
      px      :     0.887231
      py      :     0.995087
      dz2     :     0.005512  d :     0.046816
      dxz     :     0.007506
      dyz     :     0.006813
      dx2y2   :     0.012821
      dxy     :     0.014162

 13 C s       :     3.223704  s :     3.223704
      pz      :     0.967818  p :     3.182977
      px      :     1.097413
      py      :     1.117746
      dz2     :     0.008515  d :     0.036676
      dxz     :     0.004206
      dyz     :     0.009822
      dx2y2   :     0.008826
      dxy     :     0.005307

 14 C s       :     3.248034  s :     3.248034
      pz      :     1.071333  p :     3.197307
      px      :     1.119336
      py      :     1.006638
      dz2     :     0.003604  d :     0.036267
      dxz     :     0.009399
      dyz     :     0.009514
      dx2y2   :     0.010056
      dxy     :     0.003695

 15 C s       :     3.055891  s :     3.055891
      pz      :     1.075286  p :     3.142630
      px      :     1.034111
      py      :     1.033233
      dz2     :     0.004804  d :     0.038730
      dxz     :     0.004534
      dyz     :     0.005181
      dx2y2   :     0.010942
      dxy     :     0.013270

 16 C s       :     3.055493  s :     3.055493
      pz      :     0.942182  p :     2.738321
      px      :     0.886369
      py      :     0.909769
      dz2     :     0.007188  d :     0.066129
      dxz     :     0.009261
      dyz     :     0.010407
      dx2y2   :     0.017282
      dxy     :     0.021991

 17 C s       :     3.037707  s :     3.037707
      pz      :     0.931049  p :     2.970640
      px      :     1.075818
      py      :     0.963773
      dz2     :     0.004157  d :     0.042406
      dxz     :     0.007749
      dyz     :     0.006899
      dx2y2   :     0.012188
      dxy     :     0.011414

 18 C s       :     3.213696  s :     3.213696
      pz      :     0.937682  p :     2.873741
      px      :     0.949245
      py      :     0.986814
      dz2     :     0.004464  d :     0.061723
      dxz     :     0.012238
      dyz     :     0.006603
      dx2y2   :     0.022864
      dxy     :     0.015553

 19 C s       :     3.209933  s :     3.209933
      pz      :     0.952570  p :     3.039111
      px      :     1.145034
      py      :     0.941507
      dz2     :     0.004473  d :     0.039625
      dxz     :     0.005620
      dyz     :     0.006702
      dx2y2   :     0.011554
[...]
100:   1452.75   0.017937   90.65  0.003853  ( 0.056817  0.024612  0.004363)
101:   1470.06   0.006320   31.94  0.001342  ( 0.035510  0.008975  0.000248)
102:   1484.91   0.001583    8.00  0.000333  (-0.015861 -0.006746  0.005971)
103:   1488.19   0.001735    8.77  0.000364  ( 0.016435 -0.004296  0.008675)
104:   1492.50   0.000910    4.60  0.000190  ( 0.012253 -0.003086  0.005534)
105:   1495.91   0.001620    8.19  0.000338  (-0.011663  0.013457  0.004569)
106:   1496.24   0.000319    1.61  0.000067  ( 0.002052  0.000414  0.007889)
107:   1500.34   0.000470    2.38  0.000098  ( 0.000839  0.007953  0.005818)
108:   1505.98   0.000371    1.88  0.000077  ( 0.000137  0.005862  0.006519)
109:   1509.97   0.001134    5.73  0.000234  (-0.004980  0.007199  0.012558)
110:   1511.92   0.001342    6.78  0.000277  (-0.005194 -0.013667 -0.007955)
111:   1516.77   0.002412   12.19  0.000496  (-0.018992  0.008376  0.008088)
112:   1523.77   0.000567    2.87  0.000116  (-0.004262 -0.007322  0.006667)
113:   1524.19   0.004637   23.43  0.000949  (-0.012878  0.023380  0.015392)
114:   1575.09   0.005284   26.70  0.001047  (-0.004955 -0.031355 -0.006267)
115:   1603.79   0.086552  437.40  0.016841  ( 0.120798 -0.039023 -0.026949)
116:   1622.85   0.006537   33.04  0.001257  ( 0.009338 -0.033793 -0.005288)
117:   1637.30   0.019384   97.96  0.003694  ( 0.052877  0.023964  0.018005)
118:   2912.73   0.015471   78.18  0.001657  (-0.005865  0.040003 -0.004780)
119:   2922.07   0.006306   31.87  0.000673  ( 0.014180  0.011332  0.018546)
120:   2929.16   0.024978  126.23  0.002661  (-0.030970  0.036699 -0.018847)
121:   2987.04   0.003391   17.13  0.000354  ( 0.007189 -0.003491 -0.017040)
122:   2997.57   0.007316   36.97  0.000762  (-0.016903  0.005981 -0.020979)
123:   3003.13   0.007827   39.56  0.000813  ( 0.014296  0.017332 -0.017567)
124:   3004.74   0.004625   23.37  0.000480  ( 0.006470 -0.000256 -0.020939)
125:   3007.47   0.007618   38.50  0.000790  ( 0.006587 -0.019830  0.018812)
126:   3019.87   0.000759    3.83  0.000078  (-0.002112 -0.007263 -0.004601)
127:   3027.39   0.002825   14.27  0.000291  ( 0.011913 -0.012099 -0.001687)
128:   3030.71   0.002667   13.48  0.000275  ( 0.015684 -0.002337 -0.004818)
129:   3041.92   0.009412   47.56  0.000966  ( 0.026988  0.014899  0.003898)
130:   3051.85   0.002952   14.92  0.000302  ( 0.009662 -0.001841 -0.014323)
131:   3054.31   0.005791   29.26  0.000592  ( 0.011912 -0.010012 -0.018695)
132:   3073.33   0.009854   49.80  0.001001  ( 0.019165  0.019786  0.015549)
133:   3074.51   0.004164   21.04  0.000423  ( 0.009984 -0.013987 -0.011284)
134:   3074.77   0.004857   24.55  0.000493  ( 0.016865  0.013592 -0.004878)
135:   3079.09   0.013145   66.43  0.001332  (-0.029101  0.021720  0.003692)
136:   3084.19   0.006141   31.03  0.000621  ( 0.015320 -0.018921 -0.005353)
137:   3084.25   0.015288   77.26  0.001547  (-0.015892 -0.029654 -0.020371)
138:   3088.52   0.005183   26.19  0.000524  (-0.022194  0.004572  0.003190)
139:   3155.44   0.000235    1.19  0.000023  ( 0.003201  0.001664  0.003196)
140:   3169.05   0.004564   23.06  0.000449  (-0.012878 -0.016749 -0.001738)
141:   3172.41   0.004934   24.93  0.000485  (-0.015293  0.014611  0.006160)
142:   3175.76   0.000186    0.94  0.000018  (-0.003490 -0.002275 -0.000978)
143:   3189.67   0.146329  739.49  0.014316  ( 0.064543 -0.099689  0.014574)

* The epsilon (eps) is given for a Dirac delta lineshape.
** The dipole moment derivative (T) already includes vibrational overlap.

The first frequency considered to be a vibration is 6
The total number of vibrations considered is 138


--------------------------
THERMOCHEMISTRY AT 298.15K
--------------------------

Temperature         ...   298.15 K
Pressure            ...     1.00 atm
Total Mass          ...   319.88 AMU
Quasi RRHO          ...     True
Cut-Off Frequency   ...     1.00 cm^-1

Throughout the following assumptions are being made:
  (1) The electronic state is orbitally nondegenerate
  (2) There are no thermally accessible electronically excited states
  (3) Hindered rotations indicated by low frequency modes are not
      treated as such but are treated as vibrations and this may
      cause some error
  (4) All equations used are the standard statistical mechanics
      equations for an ideal gas
  (5) All vibrations are strictly harmonic

freq.      18.07  E(vib)   ...       0.57 
freq.      31.22  E(vib)   ...       0.55 
freq.      44.72  E(vib)   ...       0.53 
freq.      64.05  E(vib)   ...       0.51 
freq.      84.60  E(vib)   ...       0.48 
freq.      85.42  E(vib)   ...       0.48 
freq.     102.15  E(vib)   ...       0.46 
freq.     108.58  E(vib)   ...       0.45 
freq.     119.61  E(vib)   ...       0.44 
freq.     136.54  E(vib)   ...       0.42 
freq.     140.57  E(vib)   ...       0.41 
freq.     180.20  E(vib)   ...       0.37 
freq.     209.66  E(vib)   ...       0.34 
freq.     215.44  E(vib)   ...       0.34 
freq.     219.05  E(vib)   ...       0.33 
freq.     237.85  E(vib)   ...       0.32 
freq.     240.38  E(vib)   ...       0.31 
freq.     251.28  E(vib)   ...       0.30 
freq.     260.77  E(vib)   ...       0.30 
freq.     289.19  E(vib)   ...       0.27 
freq.     299.62  E(vib)   ...       0.26 
freq.     328.50  E(vib)   ...       0.24 
freq.     362.52  E(vib)   ...       0.22 
freq.     385.81  E(vib)   ...       0.20 
freq.     392.60  E(vib)   ...       0.20 
freq.     412.82  E(vib)   ...       0.19 
freq.     420.15  E(vib)   ...       0.18 
freq.     430.95  E(vib)   ...       0.18 
freq.     483.71  E(vib)   ...       0.15 
freq.     492.89  E(vib)   ...       0.14 
freq.     508.22  E(vib)   ...       0.14 
freq.     525.44  E(vib)   ...       0.13 
freq.     535.15  E(vib)   ...       0.13 
freq.     547.08  E(vib)   ...       0.12 
freq.     578.95  E(vib)   ...       0.11 
freq.     596.25  E(vib)   ...       0.10 
freq.     627.10  E(vib)   ...       0.09 
freq.     662.61  E(vib)   ...       0.08 
freq.     704.44  E(vib)   ...       0.07 
freq.     722.81  E(vib)   ...       0.07 
freq.     728.33  E(vib)   ...       0.06 
freq.     775.86  E(vib)   ...       0.05 
freq.     778.39  E(vib)   ...       0.05 
freq.     789.67  E(vib)   ...       0.05 
freq.     798.61  E(vib)   ...       0.05 
freq.     810.75  E(vib)   ...       0.05 
freq.     822.93  E(vib)   ...       0.05 
freq.     857.42  E(vib)   ...       0.04 
freq.     860.17  E(vib)   ...       0.04 
freq.     876.09  E(vib)   ...       0.04 
freq.     890.10  E(vib)   ...       0.04 
freq.     898.56  E(vib)   ...       0.03 
freq.     911.75  E(vib)   ...       0.03 
freq.     916.61  E(vib)   ...       0.03 
freq.     937.74  E(vib)   ...       0.03 
freq.     942.74  E(vib)   ...       0.03 
freq.     970.84  E(vib)   ...       0.03 
freq.     994.30  E(vib)   ...       0.02 
freq.    1028.64  E(vib)   ...       0.02 
freq.    1048.66  E(vib)   ...       0.02 
freq.    1066.59  E(vib)   ...       0.02 
freq.    1075.87  E(vib)   ...       0.02 
freq.    1083.62  E(vib)   ...       0.02 
freq.    1088.10  E(vib)   ...       0.02 
freq.    1098.51  E(vib)   ...       0.02 
freq.    1103.42  E(vib)   ...       0.02 
freq.    1114.09  E(vib)   ...       0.01 
freq.    1133.02  E(vib)   ...       0.01 
freq.    1145.72  E(vib)   ...       0.01 
freq.    1161.55  E(vib)   ...       0.01 
freq.    1187.37  E(vib)   ...       0.01 
freq.    1196.67  E(vib)   ...       0.01 
freq.    1217.88  E(vib)   ...       0.01 
freq.    1230.15  E(vib)   ...       0.01 
freq.    1254.69  E(vib)   ...       0.01 
freq.    1267.73  E(vib)   ...       0.01 
freq.    1276.65  E(vib)   ...       0.01 
freq.    1309.88  E(vib)   ...       0.01 
freq.    1319.84  E(vib)   ...       0.01 
freq.    1325.09  E(vib)   ...       0.01 
freq.    1338.61  E(vib)   ...       0.01 
freq.    1352.05  E(vib)   ...       0.01 
freq.    1367.46  E(vib)   ...       0.01 
freq.    1375.01  E(vib)   ...       0.01 
freq.    1375.64  E(vib)   ...       0.01 
freq.    1384.95  E(vib)   ...       0.00 
freq.    1385.45  E(vib)   ...       0.00 
freq.    1388.18  E(vib)   ...       0.00 
freq.    1394.58  E(vib)   ...       0.00 
freq.    1403.67  E(vib)   ...       0.00 
freq.    1408.17  E(vib)   ...       0.00 
freq.    1409.56  E(vib)   ...       0.00 
freq.    1415.10  E(vib)   ...       0.00 
freq.    1418.19  E(vib)   ...       0.00 
freq.    1452.75  E(vib)   ...       0.00 
freq.    1470.06  E(vib)   ...       0.00 
freq.    1484.91  E(vib)   ...       0.00 
freq.    1488.19  E(vib)   ...       0.00 
freq.    1492.50  E(vib)   ...       0.00 
freq.    1495.91  E(vib)   ...       0.00 
freq.    1496.24  E(vib)   ...       0.00 
freq.    1500.34  E(vib)   ...       0.00 
freq.    1505.98  E(vib)   ...       0.00 
freq.    1509.97  E(vib)   ...       0.00 
freq.    1511.92  E(vib)   ...       0.00 
freq.    1516.77  E(vib)   ...       0.00 
freq.    1523.77  E(vib)   ...       0.00 
freq.    1524.19  E(vib)   ...       0.00 
freq.    1575.09  E(vib)   ...       0.00 
freq.    1603.79  E(vib)   ...       0.00 
freq.    1622.85  E(vib)   ...       0.00 
freq.    1637.30  E(vib)   ...       0.00 
freq.    2912.73  E(vib)   ...       0.00 
freq.    2922.07  E(vib)   ...       0.00 
freq.    2929.16  E(vib)   ...       0.00 
freq.    2987.04  E(vib)   ...       0.00 
freq.    2997.57  E(vib)   ...       0.00 
freq.    3003.13  E(vib)   ...       0.00 
freq.    3004.74  E(vib)   ...       0.00 
freq.    3007.47  E(vib)   ...       0.00 
freq.    3019.87  E(vib)   ...       0.00 
freq.    3027.39  E(vib)   ...       0.00 
freq.    3030.71  E(vib)   ...       0.00 
freq.    3041.92  E(vib)   ...       0.00 
freq.    3051.85  E(vib)   ...       0.00 
freq.    3054.31  E(vib)   ...       0.00 
freq.    3073.33  E(vib)   ...       0.00 
freq.    3074.51  E(vib)   ...       0.00 
freq.    3074.77  E(vib)   ...       0.00 
freq.    3079.09  E(vib)   ...       0.00 
freq.    3084.19  E(vib)   ...       0.00 
freq.    3084.25  E(vib)   ...       0.00 
freq.    3088.52  E(vib)   ...       0.00 
freq.    3155.44  E(vib)   ...       0.00 
freq.    3169.05  E(vib)   ...       0.00 
freq.    3172.41  E(vib)   ...       0.00 
freq.    3175.76  E(vib)   ...       0.00 
freq.    3189.67  E(vib)   ...       0.00 

------------
INNER ENERGY
------------

The inner energy is: U= E(el) + E(ZPE) + E(vib) + E(rot) + E(trans)
    E(el)   - is the total energy from the electronic structure calculation
              = E(kin-el) + E(nuc-el) + E(el-el) + E(nuc-nuc)
    E(ZPE)  - the the zero temperature vibrational energy from the frequency calculation
    E(vib)  - the the finite temperature correction to E(ZPE) due to population
              of excited vibrational states
    E(rot)  - is the rotational thermal energy
    E(trans)- is the translational thermal energy

Summary of contributions to the inner energy U:
Electronic energy                ...  -1325.57555201 Eh
Zero point energy                ...      0.41141806 Eh     258.17 kcal/mol
Thermal vibrational correction   ...      0.01958245 Eh      12.29 kcal/mol
Thermal rotational correction    ...      0.00141627 Eh       0.89 kcal/mol
Thermal translational correction ...      0.00141627 Eh       0.89 kcal/mol
-----------------------------------------------------------------------
Total thermal energy                  -1325.14171895 Eh


Summary of corrections to the electronic energy:
(perhaps to be used in another calculation)
Total thermal correction                  0.02241499 Eh      14.07 kcal/mol
Non-thermal (ZPE) correction              0.41141806 Eh     258.17 kcal/mol
-----------------------------------------------------------------------
Total correction                          0.43383305 Eh     272.23 kcal/mol


--------
ENTHALPY
--------

The enthalpy is H = U + kB*T
                kB is Boltzmann's constant
Total thermal energy              ...  -1325.14171895 Eh 
Thermal Enthalpy correction       ...      0.00094421 Eh       0.59 kcal/mol
-----------------------------------------------------------------------
Total Enthalpy                    ...  -1325.14077475 Eh


Note: Only C1 symmetry has been detected, increase convergence thresholds 
      if your molecule has a higher symmetry. Symmetry factor of 1.0 is   
      used for the rotational entropy correction. 
 

Note: Rotational entropy computed according to Herzberg 
Infrared and Raman Spectra, Chapter V,1, Van Nostrand Reinhold, 1945 
Point Group:  C1, Symmetry Number:   1  
Rotational constants in cm-1:     0.011116     0.006147     0.004703 

Vibrational entropy computed according to the QRRHO of S. Grimme
Chem.Eur.J. 2012 18 9955 using a reference frequency of 100.0 cm-1


-------
ENTROPY
-------

The entropy contributions are T*S = T*(S(el)+S(vib)+S(rot)+S(trans))
     S(el)   - electronic entropy
     S(vib)  - vibrational entropy
     S(rot)  - rotational entropy
     S(trans)- translational entropy
The entropies will be listed as multiplied by the temperature to get
units of energy

Electronic entropy                ...      0.00000000 Eh      0.00 kcal/mol
Vibrational entropy               ...      0.03465279 Eh     21.74 kcal/mol
Rotational entropy                ...      0.01656892 Eh     10.40 kcal/mol
Translational entropy             ...      0.02051805 Eh     12.88 kcal/mol
-----------------------------------------------------------------------
Final entropy term                ...      0.07173975 Eh     45.02 kcal/mol

In case the symmetry of your molecule has not been determined correctly
or in case you have a reason to use a different symmetry number we print 
out the resulting rotational entropy values for sn=1,12:

 non-linear molecules -----------------------------------
|  sn= 1 | S(rot)=       0.01656892 Eh     10.40 kcal/mol|
|  sn= 2 | S(rot)=       0.01591446 Eh      9.99 kcal/mol|
|  sn= 3 | S(rot)=       0.01553163 Eh      9.75 kcal/mol|
|  sn= 4 | S(rot)=       0.01526000 Eh      9.58 kcal/mol|
|  sn= 5 | S(rot)=       0.01504931 Eh      9.44 kcal/mol|
|  sn= 6 | S(rot)=       0.01487717 Eh      9.34 kcal/mol|
|  sn= 7 | S(rot)=       0.01473162 Eh      9.24 kcal/mol|
|  sn= 8 | S(rot)=       0.01460555 Eh      9.17 kcal/mol|
|  sn= 9 | S(rot)=       0.01449434 Eh      9.10 kcal/mol|
|  sn=10 | S(rot)=       0.01439486 Eh      9.03 kcal/mol|
|  sn=11 | S(rot)=       0.01430487 Eh      8.98 kcal/mol|
|  sn=12 | S(rot)=       0.01422271 Eh      8.92 kcal/mol|
 linear molecules ---------------------------------------
|  Dinfh | S(rot)=       0.01038620 Eh      6.52 kcal/mol|
|  Cinfv | S(rot)=       0.01104065 Eh      6.93 kcal/mol|
 --------------------------------------------------------


-------------------
GIBBS FREE ENERGY
-------------------

The Gibbs free energy is G = H - T*S

Total enthalpy                    ...  -1325.14077475 Eh 
Total entropy correction          ...     -0.07173975 Eh    -45.02 kcal/mol
-----------------------------------------------------------------------
Final Gibbs free energy         ...  -1325.21251450 Eh

For completeness - the Gibbs free energy minus the electronic energy
G-E(el)                           ...      0.36303751 Eh    227.81 kcal/mol


Maximum memory used throughout the entire PROP-calculation: 153.4 MB

--------------------------------
SUGGESTED CITATIONS FOR THIS RUN
--------------------------------

Below you find a list of papers that are relevant to this ORCA run
We neither can nor want to force you to cite these papers, but we appreciate if you do
You receive ORCA, which is the product of decades of hard work by many enthusiastic individuals, for free
The only thing we kindly ask in return is that you cite our papers,
We deeply appreciate it, if you show your appreciation for ORCA by not just citing the generic ORCA reference.

Please note that relegating all ORCA citations to the supporting information does *not* help us.
SI sections are not indexed - citations you put there will not count into any citation statistics
But we need these citations in order to attract the funding resources that allow us to do what we are doing

Therefore, if you are a happy ORCA user, please consider citing a few of the papers listed below in the main body of your paper

In addition to the list printed below, the program has created the file m1_00_Chloroquine-GitHubGFN2-B97-3C-TZ.bibtex that contains the list in bibtex format
You can import this file easily into all common literature databanks and citation aid programs


List of essential papers. We consider these as the minimum necessary citations

  1. Neese,F.
     Software update: the ORCA program system, version 5.0
     WIRES Comput. Molec. Sci., 2022 12(1)e1606
     doi.org/10.1002/wcms.1606

List of papers to cite with high priority. The work reported in these papers was absolutely
necessary for this run to complete.
Our perspective: the developers of density functionals and basis sets usually get cited in chemistry papers
Good! But without the algorithms to do something with them, the functionals or basis sets would not do anything.
Hence, in our opinion, the algorithm design and method developments papers are equally worthy of getting cited

  1. Neese,F.
     An improvement of the resolution of the identity approximation for the formation of the Coulomb matrix
     J. Comp. Chem., 2003 24(14)1740-1747
     doi.org/10.1002/jcc.10318
  2. Bykov,D.; Petrenko,T.; Izsak,R.; Kossmann,S.; Becker,U.; Valeev,E.; Neese,F.
     Efficient implementation of the analytic second derivatives of Hartree-Fock and hybrid DFT energies: a detailed analysis of different approximations
     Molec. Phys., 2015 113 1961-1977
     doi.org/10.1080/00268976.2015.1025114
  3. Neese,F.
     The SHARK Integral Generation and Digestion System
     J. Comp. Chem., 2022  1-16
     doi.org/10.1002/jcc.26942
  4. Grimme,S.; Antony,J.; Ehrlich,S.; Krieg,H.
     A consistent and accurate ab initio parametrization of density functional dispersion correction (DFT-D) for the 94 elements H-Pu
     J. Chem. Phys., 2010 132 154104
     doi.org/10.1063/1.3382344
  5. Grimme,S.; Ehrlich,S.; Goerigk,L.
     Effect of the damping function in dispersion corrected density functional theory
     J. Comput. Chem., 2011 32(7)1456-1465
     doi.org/10.1002/jcc.21759

List of suggested additional citations. These are papers that are important in the 'surrounding' of 
of this run, or papers that preceded the highly important papers. If you like your results we are grateful for a citation.

  1. Neese,F.
     The ORCA program system
     WIRES Comput. Molec. Sci., 2012 2(1)73-78
     doi.org/10.1002/wcms.81
  2. Neese,F.
     Software update: the ORCA program system, version 4.0
     WIRES Comput. Molec. Sci., 2018 8(1)1-6
     doi.org/10.1002/wcms.1327
  3. Neese,F.; Wennmohs,F.; Becker,U.; Riplinger,C.
     The ORCA quantum chemistry program package
     J. Chem. Phys., 2020 152 Art. No. L224108
     doi.org/10.1063/5.0004608

List of optional additional citations

  1. Neese,F.
     Approximate second-order SCF convergence for spin unrestricted wavefunctions
     Chem. Phys. Lett., 2000 325(1-3)93-98
     doi.org/10.1016/s0009-2614(00)00662-x

Timings for individual modules:

Sum of individual times          ...      801.436 sec (=  13.357 min)
Startup calculation              ...       63.492 sec (=   1.058 min)   7.9 %
SCF iterations                   ...      183.553 sec (=   3.059 min)  22.9 %
Property integrals               ...      170.594 sec (=   2.843 min)  21.3 %
SCF Response                     ...      210.550 sec (=   3.509 min)  26.3 %
Property calculations            ...       70.825 sec (=   1.180 min)   8.8 %
SCF Gradient evaluation          ...      102.130 sec (=   1.702 min)  12.7 %
Geometry relaxation              ...        0.291 sec (=   0.005 min)   0.0 %
                             ****ORCA TERMINATED NORMALLY****
TOTAL RUN TIME: 0 days 0 hours 13 minutes 25 seconds 311 msec
