
                                 *****************
                                 * O   R   C   A *
                                 *****************

                                            #,                                       
                                            ###                                      
                                            ####                                     
                                            #####                                    
                                            ######                                   
                                           ########,                                 
                                     ,,################,,,,,                         
                               ,,#################################,,                 
                          ,,##########################################,,             
                       ,#########################################, ''#####,          
                    ,#############################################,,   '####,        
                  ,##################################################,,,,####,       
                ,###########''''           ''''###############################       
              ,#####''   ,,,,##########,,,,          '''####'''          '####       
            ,##' ,,,,###########################,,,                        '##       
           ' ,,###''''                  '''############,,,                           
         ,,##''                                '''############,,,,        ,,,,,,###''
      ,#''                                            '''#######################'''  
     '                                                          ''''####''''         
             ,#######,   #######,   ,#######,      ##                                
            ,#'     '#,  ##    ##  ,#'     '#,    #''#        ,####,   ,####,        
            ##       ##  ##   ,#'  ##            #'  '#       #'       #'  '#        
            ##       ##  #######   ##           ,######,      #####,   #    #        
            '#,     ,#'  ##    ##  '#,     ,#' ,#      #,     #,   #   #,  ,#        
             '#######'   ##     ##  '#######'  #'      '#     '####' # '####'        



                #########################################################
                #                        -***-                          #
                #          Department of theory and spectroscopy        #
                #                                                       #
                #                      Frank Neese                      #
                #                                                       #
                #     Directorship, Architecture, Infrastructure        #
                #                    SHARK, DRIVERS                     #
                #        Core code/Algorithms in most modules           #
                #                                                       #
                #        Max Planck Institute fuer Kohlenforschung      #
                #                Kaiser Wilhelm Platz 1                 #
                #                 D-45470 Muelheim/Ruhr                 #
                #                      Germany                          #
                #                                                       #
                #                  All rights reserved                  #
                #                        -***-                          #
                #########################################################


                         Program Version 6.0.1  -  RELEASE   -


 With contributions from (in alphabetic order):
[Max-Planck-Institut fuer Kohlenforschung]                               
  Daniel Aravena         : Magnetic Suceptibility                        
  Michael Atanasov       : Ab Initio Ligand Field Theory (pilot matlab implementation)
  Alexander A. Auer      : GIAO ZORA, VPT2 properties, NMR spectrum      
  Ute Becker             : All parallelization in ORCA, NUMFREQ, NUMCALC 
  Giovanni Bistoni       : ED, misc. LED, open-shell LED, HFLD           
  Martin Brehm           : Molecular dynamics                            
  Dmytro Bykov           : pre 5.0 version of the SCF Hessian            
  Marcos Casanova-Páez   : Triplet and SCS-CIS(D). UHF-(DLPNO)-IP/EA/STEOM-CCSD. UHF-CVS-IP/STEOM-CCSD   
  Vijay G. Chilkuri      : MRCI spin determinant printing, contributions to CSF-ICE 
  Pauline Colinet        : FMM embedding                                 
  Dipayan Datta          : RHF DLPNO-CCSD density                        
  Achintya Kumar Dutta   : EOM-CC, STEOM-CC                              
  Nicolas Foglia         : Exact transition moments, OPA infrastructure, MCD improvements    
  Dmitry Ganyushin       : Spin-Orbit,Spin-Spin,Magnetic field MRCI      
  Miquel Garcia-Rates    : C-PCM and meta-GGA Hessian, CCSD/C-PCM, Gaussian charge scheme 
  Tiago L. C. Gouveia    : GS-ROHF, GS-ROCIS                             
  Yang Guo               : DLPNO-NEVPT2, F12-NEVPT2, CIM, IAO-localization        
  Andreas Hansen         : Spin unrestricted coupled pair/coupled cluster methods 
  Ingolf Harden          : AUTO-CI MPn and infrastructure                
  Benjamin Helmich-Paris : MC-RPA, TRAH-(SCF,CASSCF), AVAS, COSX integrals, SCF dyn. polar. 
  Lee Huntington         : MR-EOM, pCC                                   
  Robert Izsak           : Overlap fitted RIJCOSX, COSX-SCS-MP3, EOM     
  Riya Kayal             : Wick's Theorem for AUTO-CI, AUTO-CI UHF-CCSDT 
  Emily Kempfer          : AUTO-CI, RHF CISDT and CCSDT                  
  Christian Kollmar      : KDIIS, OOCD, Brueckner-CCSD(T), CCSD density, CASPT2, CASPT2-K, improved NEVPT2 
  Axel Koslowski         : Symmetry handling                             
  Simone Kossmann        : meta-GGA functionals, TD-DFT gradient, OOMP2, (MP2 Hessian; deprecated post 5.0) 
  Lucas Lang             : DCDCAS                                        
  Marvin Lechner         : AUTO-CI (C++ implementation), FIC-MRCC        
  Spencer Leger          : CASSCF response                               
  Dagmar Lenk            : GEPOL surface, SMD, ORCA-2-JSON               
  Dimitrios Liakos       : Extrapolation schemes; Compound Job, initial MDCI parallelization 
  Dimitrios Manganas     : Further ROCIS development; embedding schemes. LFT, Crystal Embedding 
  Dimitrios Pantazis     : SARC Basis sets                               
  Anastasios Papadopoulos: AUTO-CI, single reference methods and gradients 
  Taras Petrenko         : pre 6.0 DFT Hessian and TD-DFT gradient, (ASA, deprecated), ECA, 1-Electron XAS/XES, NRVS 
  Peter Pinski           : DLPNO-MP2, DLPNO-MP2 Gradient                 
  Christoph Reimann      : Effective Core Potentials                     
  Marius Retegan         : Local ZFS, SOC                                
  Christoph Riplinger    : Optimizer, TS searches, QM/MM, DLPNO-CCSD(T), (RO)-DLPNO pert. Triples 
  Michael Roemelt        : Original ROCIS implementation                 
  Masaaki Saitow         : Open-shell DLPNO-CCSD energy and density      
  Barbara Sandhoefer     : DKH picture change effects                    
  Kantharuban Sivalingam : CASSCF convergence/infrastructure, NEVPT2 and variants, FIC-MRCI 
  Bernardo de Souza      : ESD, SOC TD-DFT                               
  Georgi L. Stoychev     : AutoAux, RI-MP2 NMR, DLPNO-MP2 response, X2C  
  Van Anh Tran           : RI-MP2 g-tensors                              
  Willem Van den Heuvel  : Paramagnetic NMR                              
  Zikuan Wang            : NOTCH, Electric field optimization            
  Frank Wennmohs         : Technical directorship and infrastructure     
  Hang Xu                : AUTO-CI-Response properties                   
                                                                         
[FACCTs GmbH]                                                            
  Markus Bursch, Miquel Garcia-Rates, Christoph Riplinger, Bernardo de Souza, Georgi L. Stoychev 
                                                                 
  APM, Basis sets (HGBS, AHGBS, def-TZVP (Ac-Lr), def2-XVPD (La-Lu)), CI-OPT, improved COSX, DLPNO-Multilevel,           
  DOCKER, DRACO, updates on ESD, GOAT, IRC, LR-CPCM, MBIS, meta-GGA TD-DFT gradient, ML-optimized integration grids, 
  MM, NACMEs, nearIR, NEB, NEB-TS, NL-DFT gradient (VV10), 2- and 3-layer-ONIOM, interface openCOSMO-RS, QMMM,   
  Crystal-QMMM, SF, symmetry and pop. for TD-DFT, r2SCAN hybrids, SOLVATOR                                   
                                                                         
[Other institutions]                                                     
  V. Asgeirsson          : NEB                                           
  Christoph Bannwarth    : sTDA-DFT, sTD-DFT, PBEh-3c, B97-3c, D3        
  Sebastian Ehlert       : rSCAN, r2SCAN, r2SCAN-3c, D4, dhf basis sets  
  Marvin Friede          : D4 for Fr, Ra, Ac-Lr                          
  Lars Goerigk           : TD-DFT with DH, B97 family of functionals     
  Stefan Grimme          : VdW corrections, initial TS optimization, DFT functionals, gCP, sTDA/sTD-DF 
  Waldemar Hujo          : DFT-NL                                        
  H. Jonsson             : NEB                                           
  Holger Kruse           : gCP                                           
  Marcel Mueller         : wB97X-3c, vDZP basis set                      
  Hagen Neugebauer       : wr2SCAN                                       
  Tobias Risthaus        : range-separated hybrid DFT                    
  Lukas Wittmann         : regularized MP2, r2SCAN double-hybrids, wr2SCAN        
                                                                         
We gratefully acknowledge several colleagues who have allowed us to      
interface, adapt or use parts of their codes:                            
  Ed Valeev, F. Pavosevic, A. Kumar             : LibInt (2-el integral package), F12 methods 
  Garnet Chan, S. Sharma, J. Yang, R. Olivares  : DMRG                   
  Ulf Ekstrom                                   : XCFun DFT Library      
  Mihaly Kallay                                 : mrcc  (arbitrary order and MRCC methods)
  Frank Weinhold                                : gennbo (NPA and NBO analysis)           
  Simon Mueller                                 : openCOSMO-RS                            
  Christopher J. Cramer and Donald G. Truhlar   : smd solvation model                     
  S Lehtola, MJT Oliveira, MAL Marques          : LibXC Library                           
  Liviu Ungur et al                             : ANISO software                          


 Your calculation uses the libint2 library for the computation of 2-el integrals
 For citations please refer to: http://libint.valeyev.net

 Your ORCA version has been built with support for libXC version: 6.2.2
 For citations please refer to: https://libxc.gitlab.io

 This ORCA versions uses:
   CBLAS   interface :  Fast vector & matrix operations
   LAPACKE interface :  Fast linear algebra routines
   SCALAPACK package :  Parallel linear algebra routines
   Shared memory     :  Shared parallel matrices
   BLAS/LAPACK       :  OpenBLAS 0.3.27  USE64BITINT DYNAMIC_ARCH NO_AFFINITY Zen SINGLE_THREADED
        Core in use  :  Zen
   Copyright (c) 2011-2014, The OpenBLAS Project


NOTE: MaxCore=6000 MB was set to SCF,MP2,MDCI,CIPSI,MRCI and CIS
      => If you want to overwrite this, your respective input block should be placed after the MaxCore statement
Your calculation utilizes the atom-pairwise dispersion correction
with the Becke-Johnson damping scheme (D3BJ)


Your calculation employs the composite approach B97-3c by Grimme and coworkers.
For the correct reference, please check the publication list of the Grimme group:
http://www.thch.uni-bonn.de/tc/index.php?section=publikationen&subsection=grimme#2017
   

XCFun DFT library Copyright 2009-2010 Ulf Ekstrom and contributors.
See http://admol.org/xcfun for more information.
This is free software; see the source code for copying conditions.
There is ABSOLUTELY NO WARRANTY; not even for MERCHANTABILITY or FITNESS FOR A PARTICULAR PURPOSE.
For details see the documentation.
Scientific users of this library should cite U. Ekstrom, L. Visscher, R. Bast, A. J. Thorvaldsen and K. Ruud;
J.Chem.Theor.Comp. 2010, DOI: 10.1021/ct100117s
XCFun Version 0.99 

================================================================================

----- Orbital basis set information -----
Your calculation utilizes the basis: def2-mTZVP
----- AuxJ basis set information -----
Your calculation utilizes the basis: def2-mTZVP/J
================================================================================
                                        WARNINGS
                       Please study these warnings very carefully!
================================================================================


WARNING: Geometry Optimization
  ===> : Switching off AutoStart
         For restart on a previous wavefunction, please use MOREAD

================================================================================
                                       INPUT FILE
================================================================================
NAME = m1_00_Pregabalin-GitHubGFN2-B97-3C-TZ.inp
|  1> %pal nprocs 16 end
|  2> %MaxCore 6000
|  3> # put your comments here
|  4> ! B97-3C  OPT  FREQ DEFGRID3 NOTRAH
|  5> %scf MaxIter 800 end
|  6> %output
|  7> Print [P_Hirshfeld] 1
|  8> end
|  9> %geom
| 10> MaxIter 3000
| 11>  TolE 1e-6 #TolE 5e-6 Energy change (a.u.)
| 12>  TolRMSG 3e-5 #TolRMSG 1e-4 RMS gradient (a.u.)
| 13>  TolMaxG 1e-4 #TolMaxG 3e-3 Max. element of gradient (a.u.)
| 14>  TolRMSD 2e-3 #TolRMSD 2e-3 RMS displacement (a.u.)
| 15>  TolMaxD 4e-3 #TolMaxD 4e-3 Max. displacement (a.u.)
| 16> end
| 17> * xyz 0 1
| 18>  O        -0.2307702445        -2.6674818859         0.9277863106
| 19>  C        -0.5355971273        -1.7132849147         0.0333692399
| 20>  O        -0.4325021880        -1.8955400287        -1.1513837478
| 21>  C        -1.0347929215        -0.4624497851         0.6944601499
| 22>  H        -0.6821078878        -0.4317597521         1.7248041374
| 23>  C        -0.6627357535         0.8076070950        -0.0787649663
| 24>  C         0.6986173417         1.3647709267         0.3444449489
| 25>  H         0.8718594671         2.3048418566        -0.1859891342
| 26>  C         1.8924431960         0.4381917268         0.0883579923
| 27>  C         2.1291111206         0.2157125675        -1.4031709959
| 28>  H         2.2311802484         1.1686605094        -1.9185160781
| 29>  H         1.3090400250        -0.3388063472        -1.8501089266
| 30>  H         3.0423180309        -0.3552375818        -1.5566579742
| 31>  C         3.1436263033         1.0347105935         0.7330369072
| 32>  H         3.3725214354         2.0018385224         0.2899688202
| 33>  H         3.9991162013         0.3797984533         0.5849549375
| 34>  H         3.0003303542         1.1726597040         1.8026408997
| 35>  H         1.6957520644        -0.5310732047         0.5585700785
| 36>  H         0.6571914066         1.5964340217         1.4124909308
| 37>  H        -0.6417818215         0.5539540033        -1.1429029458
| 38>  C        -1.7497355889         1.8689012752         0.1336239761
| 39>  N        -3.0512856793         1.3344334388        -0.2368259426
| 40>  H        -3.0516917461         1.0724903572        -1.2176429208
| 41>  H        -3.7740025712         2.0320595581        -0.1004999803
| 42>  H        -1.7956335187         2.1379823701         1.1934979550
| 43>  H        -1.4761804695         2.7749311871        -0.4322181070
| 44>  H        -2.1277419310        -0.5278216209         0.7051951862
| 45>  H         0.0535046218        -3.4764799661         0.4740033699
| 46> *
| 47> 
| 48> 
| 49> 
| 50> 
| 51>                          ****END OF INPUT****
================================================================================

                       *****************************
                       * Geometry Optimization Run *
                       *****************************

Geometry optimization settings:
Update method            Update   .... BFGS
Choice of coordinates    CoordSys .... (2022) Redundant Internals
Initial Hessian          InHess   .... Almloef's Model
Max. no of cycles        MaxIter  .... 3000

Convergence Tolerances:
Energy Change            TolE     ....  1.0000e-06 Eh
Max. Gradient            TolMAXG  ....  1.0000e-04 Eh/bohr
RMS Gradient             TolRMSG  ....  3.0000e-05 Eh/bohr
Max. Displacement        TolMAXD  ....  4.0000e-03 bohr
RMS Displacement         TolRMSD  ....  2.0000e-03 bohr
Strict Convergence                .... False

------------------------------------------------------------------------------
                        ORCA OPTIMIZATION COORDINATE SETUP
------------------------------------------------------------------------------

The optimization will be done in redundant internal coordinates (2022)
Making redundant internal coordinates   ...  (2022 redundants) done
Evaluating the initial hessian          ...  (Almloef) done
Evaluating the coordinates              ...  done
Calculating the B-matrix                .... done
Calculating the G-matrix                .... done
Diagonalizing the G-matrix              .... done
Small eigenvalue found = 8.383e-03
Small eigenvalue found = 1.446e-02
Small eigenvalue found = 2.038e-02
The first mode is                       ....   46
The number of degrees of freedom        ....   78

    -----------------------------------------------------------------
                    Redundant Internal Coordinates


    -----------------------------------------------------------------
         Definition                    Initial Value    Approx d2E/dq
    -----------------------------------------------------------------
      1. B(C   1,O   0)                  1.3429         0.665293   
      2. B(O   2,C   1)                  1.2031         1.111831   
      3. B(C   3,C   1)                  1.5003         0.416679   
      4. B(H   4,C   3)                  1.0895         0.360806   
      5. B(C   5,C   3)                  1.5328         0.369808   
      6. B(C   6,C   5)                  1.5306         0.372715   
      7. B(H   7,C   6)                  1.0932         0.355879   
      8. B(C   8,C   6)                  1.5328         0.369808   
      9. B(C   9,C   8)                  1.5265         0.378425   
     10. B(H  10,C   9)                  1.0882         0.362532   
     11. B(H  11,C   9)                  1.0862         0.365205   
     12. B(H  12,C   9)                  1.0879         0.362912   
     13. B(C  13,C   8)                  1.5287         0.375372   
     14. B(H  14,C  13)                  1.0881         0.362575   
     15. B(H  15,C  13)                  1.0875         0.363395   
     16. B(H  16,C  13)                  1.0879         0.362834   
     17. B(H  17,C   8)                  1.0951         0.353406   
     18. B(H  18,C   6)                  1.0937         0.355282   
     19. B(H  19,C   5)                  1.0942         0.354649   
     20. B(C  20,C   5)                  1.5340         0.368184   
     21. B(N  21,C  20)                  1.4550         0.440787   
     22. B(H  22,N  21)                  1.0152         0.424532   
     23. B(H  23,N  21)                  1.0137         0.426867   
     24. B(H  24,C  20)                  1.0945         0.354247   
     25. B(H  25,C  20)                  1.1027         0.343713   
     26. B(H  26,C   3)                  1.0950         0.353605   
     27. B(H  27,O   0)                  0.9702         0.500908   
     28. A(C   1,O   0,H  27)          110.3342         0.372236   
     29. A(O   2,C   1,C   3)          126.0671         0.445993   
     30. A(O   0,C   1,C   3)          111.9905         0.406820   
     31. A(O   0,C   1,O   2)          121.9229         0.482610   
     32. A(C   5,C   3,H  26)          107.2600         0.322814   
     33. A(H   4,C   3,H  26)          108.3934         0.290099   
     34. A(C   1,C   3,H  26)          106.6587         0.329216   
     35. A(C   1,C   3,C   5)          112.8166         0.369572   
     36. A(C   1,C   3,H   4)          109.4209         0.330314   
     37. A(H   4,C   3,C   5)          112.0348         0.323884   
     38. A(C   6,C   5,C  20)          109.8846         0.362308   
     39. A(C   6,C   5,H  19)          109.6494         0.323386   
     40. A(C   3,C   5,C   6)          112.2118         0.362580   
     41. A(H  19,C   5,C  20)          107.9763         0.322738   
     42. A(C   3,C   5,C  20)          109.3556         0.361824   
     43. A(C   3,C   5,H  19)          107.6489         0.322971   
     44. A(H   7,C   6,H  18)          107.3192         0.289689   
     45. A(C   8,C   6,H  18)          108.7061         0.323065   
     46. A(C   5,C   6,C   8)          115.2451         0.362580   
     47. A(H   7,C   6,C   8)          108.3813         0.323154   
     48. A(C   5,C   6,H   7)          108.6513         0.323569   
     49. A(C   5,C   6,H  18)          108.2663         0.323480   
     50. A(C  13,C   8,H  17)          108.1377         0.323576   
     51. A(C   9,C   8,H  17)          108.5656         0.324007   
     52. A(C   6,C   8,H  17)          108.8698         0.322785   
     53. A(C   6,C   8,C   9)          111.8460         0.363523   
     54. A(C   9,C   8,C  13)          110.0010         0.364453   
     55. A(C   6,C   8,C  13)          109.3374         0.363020   
     56. A(C   8,C   9,H  12)          110.1509         0.325423   
     57. A(H  10,C   9,H  11)          108.8465         0.291792   
     58. A(C   8,C   9,H  11)          111.0638         0.325760   
     59. A(C   8,C   9,H  10)          110.4660         0.325367   
     60. A(H  11,C   9,H  12)          107.9261         0.291840   
     61. A(H  10,C   9,H  12)          108.3037         0.291503   
     62. A(H  15,C  13,H  16)          108.2908         0.291602   
     63. A(H  14,C  13,H  16)          108.3806         0.291499   
     64. A(C   8,C  13,H  16)          110.8723         0.324978   
     65. A(H  14,C  13,H  15)          108.3197         0.291570   
     66. A(C   8,C  13,H  15)          110.5746         0.325061   
     67. A(C   8,C  13,H  14)          110.3206         0.324940   
     68. A(H  24,C  20,H  25)          107.7779         0.287983   
     69. A(N  21,C  20,H  25)          113.1475         0.328747   
     70. A(C   5,C  20,H  25)          108.7618         0.321086   
     71. A(N  21,C  20,H  24)          107.4194         0.330390   
     72. A(C   5,C  20,H  24)          109.5057         0.322678   
     73. A(C   5,C  20,N  21)          110.1514         0.370548   
     74. A(H  22,N  21,H  23)          107.8915         0.301679   
     75. A(C  20,N  21,H  23)          110.5320         0.337863   
     76. A(C  20,N  21,H  22)          109.9457         0.337554   
     77. D(O   2,C   1,O   0,H  27)     -0.8489         0.032840   
     78. D(C   3,C   1,O   0,H  27)    177.6392         0.032840   
     79. D(H   4,C   3,C   1,O   0)     22.5101         0.012845   
     80. D(C   5,C   3,C   1,O   0)    147.9536         0.012845   
     81. D(H   4,C   3,C   1,O   2)   -159.0774         0.012845   
     82. D(H  26,C   3,C   1,O   0)    -94.5376         0.012845   
     83. D(C   5,C   3,C   1,O   2)    -33.6340         0.012845   
     84. D(H  19,C   5,C   3,H  26)    -85.2633         0.010933   
     85. D(H  19,C   5,C   3,H   4)    155.9072         0.010933   
     86. D(H  19,C   5,C   3,C   1)     31.8908         0.010933   
     87. D(C   6,C   5,C   3,H  26)    154.0014         0.010933   
     88. D(C   6,C   5,C   3,H   4)     35.1719         0.010933   
     89. D(C   6,C   5,C   3,C   1)    -88.8445         0.010933   
     90. D(H   7,C   6,C   5,H  19)     64.5731         0.011095   
     91. D(H   7,C   6,C   5,C   3)   -175.8539         0.011095   
     92. D(C   8,C   6,C   5,C  20)   -175.7685         0.011095   
     93. D(C   8,C   6,C   5,H  19)    -57.2379         0.011095   
     94. D(C   8,C   6,C   5,C   3)     62.3352         0.011095   
     95. D(H   7,C   6,C   5,C  20)    -53.9575         0.011095   
     96. D(C  13,C   8,C   6,H  18)    -50.4000         0.010933   
     97. D(C  13,C   8,C   6,H   7)     65.9408         0.010933   
     98. D(C  13,C   8,C   6,C   5)   -172.1029         0.010933   
     99. D(C   9,C   8,C   6,H  18)   -172.4879         0.010933   
    100. D(C   9,C   8,C   6,H   7)    -56.1471         0.010933   
    101. D(C   9,C   8,C   6,C   5)     65.8092         0.010933   
    102. D(H  11,C   9,C   8,C  13)    171.7243         0.011418   
    103. D(H  11,C   9,C   8,C   6)    -66.5689         0.011418   
    104. D(H  10,C   9,C   8,H  17)    174.4570         0.011418   
    105. D(H  10,C   9,C   8,C  13)    -67.3968         0.011418   
    106. D(H  11,C   9,C   8,H  17)     53.5782         0.011418   
    107. D(H  10,C   9,C   8,C   6)     54.3100         0.011418   
    108. D(H  15,C  13,C   8,H  17)     60.1633         0.011245   
    109. D(H  15,C  13,C   8,C   9)    -58.2468         0.011245   
    110. D(H  15,C  13,C   8,C   6)    178.5639         0.011245   
    111. D(H  14,C  13,C   8,H  17)    179.9664         0.011245   
    112. D(H  14,C  13,C   8,C   9)     61.5564         0.011245   
    113. D(H  14,C  13,C   8,C   6)    -61.6329         0.011245   
    114. D(H  24,C  20,C   5,C   6)    -60.7202         0.010843   
    115. D(H  24,C  20,C   5,C   3)     62.8625         0.010843   
    116. D(N  21,C  20,C   5,H  19)     61.7994         0.010843   
    117. D(N  21,C  20,C   5,C   6)   -178.6435         0.010843   
    118. D(H  24,C  20,C   5,H  19)    179.7228         0.010843   
    119. D(N  21,C  20,C   5,C   3)    -55.0609         0.010843   
    120. D(H  23,N  21,C  20,H  24)     60.9167         0.016568   
    121. D(H  23,N  21,C  20,C   5)   -179.8803         0.016568   
    122. D(H  22,N  21,C  20,H  25)     61.0965         0.016568   
    123. D(H  22,N  21,C  20,H  24)    179.9227         0.016568   
    124. D(H  22,N  21,C  20,C   5)    -60.8743         0.016568   
    -----------------------------------------------------------------

Number of atoms                         .... 28
Number of degrees of freedom            .... 124


         *************************************************************
         *                GEOMETRY OPTIMIZATION CYCLE   1            *
         *************************************************************
---------------------------------
CARTESIAN COORDINATES (ANGSTROEM)
---------------------------------
  O     -0.230770   -2.667482    0.927786
  C     -0.535597   -1.713285    0.033369
  O     -0.432502   -1.895540   -1.151384
  C     -1.034793   -0.462450    0.694460
  H     -0.682108   -0.431760    1.724804
  C     -0.662736    0.807607   -0.078765
  C      0.698617    1.364771    0.344445
  H      0.871859    2.304842   -0.185989
  C      1.892443    0.438192    0.088358
  C      2.129111    0.215713   -1.403171
  H      2.231180    1.168661   -1.918516
  H      1.309040   -0.338806   -1.850109
  H      3.042318   -0.355238   -1.556658
  C      3.143626    1.034711    0.733037
  H      3.372521    2.001839    0.289969
  H      3.999116    0.379798    0.584955
  H      3.000330    1.172660    1.802641
  H      1.695752   -0.531073    0.558570
  H      0.657191    1.596434    1.412491
  H     -0.641782    0.553954   -1.142903
  C     -1.749736    1.868901    0.133624
  N     -3.051286    1.334433   -0.236826
  H     -3.051692    1.072490   -1.217643
  H     -3.774003    2.032060   -0.100500
  H     -1.795634    2.137982    1.193498
  H     -1.476180    2.774931   -0.432218
  H     -2.127742   -0.527822    0.705195
  H      0.053505   -3.476480    0.474003

----------------------------
CARTESIAN COORDINATES (A.U.)
----------------------------
  NO LB      ZA    FRAG     MASS         X           Y           Z
   0 O     8.0000    0    15.999   -0.436093   -5.040810    1.753262
   1 C     6.0000    0    12.011   -1.012132   -3.237639    0.063059
   2 O     8.0000    0    15.999   -0.817311   -3.582052   -2.175800
   3 C     6.0000    0    12.011   -1.955475   -0.873903    1.312339
   4 H     1.0000    0     1.008   -1.288997   -0.815908    3.259407
   5 C     6.0000    0    12.011   -1.252389    1.526156   -0.148844
   6 C     6.0000    0    12.011    1.320195    2.579043    0.650907
   7 H     1.0000    0     1.008    1.647576    4.355520   -0.351469
   8 C     6.0000    0    12.011    3.576199    0.828062    0.166972
   9 C     6.0000    0    12.011    4.023437    0.407638   -2.651609
  10 H     1.0000    0     1.008    4.216320    2.208448   -3.625470
  11 H     1.0000    0     1.008    2.473727   -0.640251   -3.496199
  12 H     1.0000    0     1.008    5.749148   -0.671302   -2.941657
  13 C     6.0000    0    12.011    5.940593    1.955320    1.385239
  14 H     1.0000    0     1.008    6.373142    3.782927    0.547962
  15 H     1.0000    0     1.008    7.557234    0.717715    1.105405
  16 H     1.0000    0     1.008    5.669803    2.216006    3.406498
  17 H     1.0000    0     1.008    3.204507   -1.003583    1.055544
  18 H     1.0000    0     1.008    1.241912    3.016823    2.669221
  19 H     1.0000    0     1.008   -1.212792    1.046821   -2.159774
  20 C     6.0000    0    12.011   -3.306521    3.531712    0.252513
  21 N     7.0000    0    14.007   -5.766094    2.521714   -0.447536
  22 H     1.0000    0     1.008   -5.766862    2.026713   -2.301012
  23 H     1.0000    0     1.008   -7.131831    3.840036   -0.189917
  24 H     1.0000    0     1.008   -3.393256    4.040201    2.255384
  25 H     1.0000    0     1.008   -2.789577    5.243860   -0.816774
  26 H     1.0000    0     1.008   -4.020850   -0.997438    1.332626
  27 H     1.0000    0     1.008    0.101109   -6.569595    0.895737

--------------------------------
INTERNAL COORDINATES (ANGSTROEM)
--------------------------------
 O      0   0   0     0.000000000000     0.00000000     0.00000000
 C      1   0   0     1.342904756371     0.00000000     0.00000000
 O      2   1   0     1.203114763833   121.92292347     0.00000000
 C      2   1   3     1.500275359283   111.99050455   178.48812157
 H      4   2   1     1.089466540881   109.42092564    22.51007801
 C      4   2   1     1.532758329050   112.81662650   147.95355909
 C      6   4   2     1.530627458753   112.21184218   271.15545171
 H      7   6   4     1.093209268059   108.65126967   184.14613942
 C      7   6   4     1.532758856906   115.24508535    62.33520117
 C      9   7   6     1.526488586757   111.84595648    65.80919091
 H     10   9   7     1.088167468990   110.46600512    54.30999202
 H     10   9   7     1.086168192545   111.06378454   293.43113849
 H     10   9   7     1.087882891911   110.15093912   173.91519610
 C      9   7   6     1.528693831229   109.33742571   187.89711320
 H     14   9   7     1.088135442891   110.32061772   298.36708349
 H     14   9   7     1.087520641970   110.57459355   178.56389391
 H     14   9   7     1.087941352688   110.87232722    58.43833531
 H      9   7   6     1.095107900937   108.86981957   305.84025780
 H      7   6   4     1.093666364636   108.26628121   300.39529421
 H      6   4   2     1.094151999317   107.64892257    31.89075146
 C      6   4   2     1.533956662341   109.35559974   148.95784533
 N     21   6   4     1.454964483495   110.15139968   304.93911031
 H     22  21   6     1.015192734220   109.94571671   299.12569439
 H     22  21   6     1.013699499933   110.53201431   180.11967401
 H     21   6   4     1.094460646502   109.50569775    62.86245464
 H     21   6   4     1.102678496940   108.76176843   180.40595301
 H      4   2   1     1.094954910162   106.65871574   265.46238360
 H      1   2   3     0.970159291378   110.33415050   359.15107123

---------------------------
INTERNAL COORDINATES (A.U.)
---------------------------
 O      0   0   0     0.000000000000     0.00000000     0.00000000
 C      1   0   0     2.537722213482     0.00000000     0.00000000
 O      2   1   0     2.273557411321   121.92292347     0.00000000
 C      2   1   3     2.835109554516   111.99050455   178.48812157
 H      4   2   1     2.058793394335   109.42092564    22.51007801
 C      4   2   1     2.896493471391   112.81662650   147.95355909
 C      6   4   2     2.892466710103   112.21184218   271.15545171
 H      7   6   4     2.065866123696   108.65126967   184.14613942
 C      7   6   4     2.896494468894   115.24508535    62.33520117
 C      9   7   6     2.884645375527   111.84595648    65.80919091
 H     10   9   7     2.056338504234   110.46600512    54.30999202
 H     10   9   7     2.052560419287   111.06378454   293.43113849
 H     10   9   7     2.055800731490   110.15093912   173.91519610
 C      9   7   6     2.888812683638   109.33742571   187.89711320
 H     14   9   7     2.056277983677   110.32061772   298.36708349
 H     14   9   7     2.055116178310   110.57459355   178.56389391
 H     14   9   7     2.055911206348   110.87232722    58.43833531
 H      9   7   6     2.069454019864   108.86981957   305.84025780
 H      7   6   4     2.066729911044   108.26628121   300.39529421
 H      6   4   2     2.067647627592   107.64892257    31.89075146
 C      6   4   2     2.898757993128   109.35559974   148.95784533
 N     21   6   4     2.749484408387   110.15139968   304.93911031
 H     22  21   6     1.918436240823   109.94571671   299.12569439
 H     22  21   6     1.915614436966   110.53201431   180.11967401
 H     21   6   4     2.068230886243   109.50569775    62.86245464
 H     21   6   4     2.083760372981   108.76176843   180.40595301
 H      4   2   1     2.069164909198   106.65871574   265.46238360
 H      1   2   3     1.833335366984   110.33415050   359.15107123

---------------------
BASIS SET INFORMATION
---------------------
There are 4 groups of distinct atoms

 Group   1 Type O   : 11s6p2d contracted to 5s3p2d pattern {62111/411/11}
 Group   2 Type C   : 11s6p1d contracted to 5s3p1d pattern {62111/411/1}
 Group   3 Type H   : 5s contracted to 3s pattern {311}
 Group   4 Type N   : 11s6p1d contracted to 5s3p1d pattern {62111/411/1}

Atom   0O    basis set group =>   1
Atom   1C    basis set group =>   2
Atom   2O    basis set group =>   1
Atom   3C    basis set group =>   2
Atom   4H    basis set group =>   3
Atom   5C    basis set group =>   2
Atom   6C    basis set group =>   2
Atom   7H    basis set group =>   3
Atom   8C    basis set group =>   2
Atom   9C    basis set group =>   2
Atom  10H    basis set group =>   3
Atom  11H    basis set group =>   3
Atom  12H    basis set group =>   3
Atom  13C    basis set group =>   2
Atom  14H    basis set group =>   3
Atom  15H    basis set group =>   3
Atom  16H    basis set group =>   3
Atom  17H    basis set group =>   3
Atom  18H    basis set group =>   3
Atom  19H    basis set group =>   3
Atom  20C    basis set group =>   2
Atom  21N    basis set group =>   4
Atom  22H    basis set group =>   3
Atom  23H    basis set group =>   3
Atom  24H    basis set group =>   3
Atom  25H    basis set group =>   3
Atom  26H    basis set group =>   3
Atom  27H    basis set group =>   3
---------------------------------
AUXILIARY/J BASIS SET INFORMATION
---------------------------------
There are 4 groups of distinct atoms

 Group   1 Type O   : 8s3p3d contracted to 6s3p3d pattern {311111/111/111}
 Group   2 Type C   : 8s3p3d contracted to 6s3p3d pattern {311111/111/111}
 Group   3 Type H   : 5s2p contracted to 3s1p pattern {311/2}
 Group   4 Type N   : 8s3p3d contracted to 6s3p3d pattern {311111/111/111}

Atom   0O    basis set group =>   1
Atom   1C    basis set group =>   2
Atom   2O    basis set group =>   1
Atom   3C    basis set group =>   2
Atom   4H    basis set group =>   3
Atom   5C    basis set group =>   2
Atom   6C    basis set group =>   2
Atom   7H    basis set group =>   3
Atom   8C    basis set group =>   2
Atom   9C    basis set group =>   2
Atom  10H    basis set group =>   3
Atom  11H    basis set group =>   3
Atom  12H    basis set group =>   3
Atom  13C    basis set group =>   2
Atom  14H    basis set group =>   3
Atom  15H    basis set group =>   3
Atom  16H    basis set group =>   3
Atom  17H    basis set group =>   3
Atom  18H    basis set group =>   3
Atom  19H    basis set group =>   3
Atom  20C    basis set group =>   2
Atom  21N    basis set group =>   4
Atom  22H    basis set group =>   3
Atom  23H    basis set group =>   3
Atom  24H    basis set group =>   3
Atom  25H    basis set group =>   3
Atom  26H    basis set group =>   3
Atom  27H    basis set group =>   3


           ************************************************************
           *        Program running with 16 parallel MPI-processes    *
           *              working on a common directory               *
           ************************************************************
------------------------------------------------------------------------------
                             ORCA STARTUP CALCULATIONS
                           -- RI-GTO INTEGRALS CHOSEN --
------------------------------------------------------------------------------
------------------------------------------------------------------------------
                   ___                                                        
                  /   \      - P O W E R E D   B Y -                         
                 /     \                                                     
                 |  |  |   _    _      __       _____    __    __             
                 |  |  |  | |  | |    /  \     |  _  \  |  |  /  |          
                  \  \/   | |  | |   /    \    | | | |  |  | /  /          
                 / \  \   | |__| |  /  /\  \   | |_| |  |  |/  /          
                |  |  |   |  __  | /  /__\  \  |    /   |      \           
                |  |  |   | |  | | |   __   |  |    \   |  |\   \          
                \     /   | |  | | |  |  |  |  | |\  \  |  | \   \       
                 \___/    |_|  |_| |__|  |__|  |_| \__\ |__|  \__/        
                                                                              
                      - O R C A' S   B I G   F R I E N D -                    
                                      &                                       
                       - I N T E G R A L  F E E D E R -                       
                                                                              
 v1 FN, 2020, v2 2021, v3 2022-2024                                           
------------------------------------------------------------------------------


----------------------
SHARK INTEGRAL PACKAGE
----------------------

Number of atoms                             ...     28
Number of basis functions                   ...    270
Number of shells                            ...    152
Maximum angular momentum                    ...      2
Integral batch strategy                     ... SHARK/LIBINT Hybrid
RI-J (if used) integral strategy            ... SPLIT-RIJ (Revised 2003 algorithm where possible)
Printlevel                                  ...      1
Contraction scheme used                     ... SEGMENTED contraction
Prescreening option                         ... SCHWARTZ
   Thresh                                   ... 2.500e-11
   Tcut                                     ... 2.500e-12
   Tpresel                                  ... 2.500e-12 
Coulomb Range Separation                    ... NOT USED
Exchange Range Separation                   ... NOT USED
Multipole approximations                    ... NOT USED
Finite Nucleus Model                        ... NOT USED
CABS basis                                  ... NOT available
Auxiliary Coulomb fitting basis             ... AVAILABLE
   # of basis functions in Aux-J            ...    432
   # of shells in Aux-J                     ...    200
   Maximum angular momentum in Aux-J        ...      2
Auxiliary J/K fitting basis                 ... NOT available
Auxiliary Correlation fitting basis         ... NOT available
Auxiliary 'external' fitting basis          ... NOT available

Checking pre-screening integrals            ... done (  0.0 sec) Dimension = 152
Check shell pair data                       ... done (  0.0 sec)
Shell pair information
Shell pair cut-off parameter TPreSel        ...   2.5e-12
Total number of shell pairs                 ...     11628
Shell pairs after pre-screening             ...     10166
Total number of primitive shell pairs       ...     41048
Primitive shell pairs kept                  ...     24639
          la=0 lb=0:   4763 shell pairs
          la=1 lb=0:   3198 shell pairs
          la=1 lb=1:    544 shell pairs
          la=2 lb=0:   1171 shell pairs
          la=2 lb=1:    407 shell pairs
          la=2 lb=2:     83 shell pairs

Calculating one electron integrals          ... done (  0.0 sec)
Calculating RI/J V-Matrix + Cholesky decomp.... done (  0.0 sec)
Calculating Nuclear repulsion               ... done (  0.0 sec) ENN=    678.209996731537 Eh

Diagonalization of the overlap matrix:
Smallest eigenvalue                        ... 8.876e-05
Time for diagonalization                   ...    0.005 sec
Threshold for overlap eigenvalues          ... 1.000e-07
Number of eigenvalues below threshold      ... 0
Time for construction of square roots      ...    0.002 sec
Total time needed                          ...    0.008 sec

-------------------
DFT GRID GENERATION
-------------------

General Integration Accuracy     IntAcc      ... 4.959
Radial Grid Type                 RadialGrid  ... OptM3 with GC (2021)
Angular Grid (max. ang.)         AngularGrid ... 6 (Lebedev-590)
Angular grid pruning method      GridPruning ... 4 (adaptive)
Weight generation scheme         WeightScheme... mBecke (2022)
Basis function cutoff            BFCut       ... 1.0000e-11
Integration weight cutoff        WCut        ... 1.0000e-14
Partially contracted basis set               ... off
Rotationally invariant grid construction     ... off
Angular grids for H and He will be reduced by one unit
Diffuse basis detected: some atoms will have their outermost
                        angular grid increased by 1.

Total number of grid points                  ...   302361
Total number of batches                      ...     4739
Average number of points per batch           ...       63
Average number of grid points per atom       ...    10799
Initializing property integral containers    ... done (  0.0 sec)

SHARK setup successfully completed in   2.0 seconds

Maximum memory used throughout the entire STARTUP-calculation: 67.6 MB


           ************************************************************
           *        Program running with 16 parallel MPI-processes    *
           *              working on a common directory               *
           ************************************************************
-------------------------------------------------------------------------------
                                 ORCA GUESS
                   Start orbitals & Density for SCF / CASSCF
-------------------------------------------------------------------------------

------------
SCF SETTINGS
------------
Hamiltonian:
 Density Functional     Method          .... DFT(GTOs)
 Exchange Functional    Exchange        .... B973C
 Correlation Functional Correlation     .... B973C
 Gradients option       PostSCFGGA      .... off
 RI-approximation to the Coulomb term is turned on
   Number of AuxJ basis functions       .... 432


General Settings:
 Integral files         IntName         .... m1_00_Pregabalin-GitHubGFN2-B97-3C-TZ
 Hartree-Fock type      HFTyp           .... RHF
 Total Charge           Charge          ....    0
 Multiplicity           Mult            ....    1
 Number of Electrons    NEL             ....   88
 Basis Dimension        Dim             ....  270
 Nuclear Repulsion      ENuc            ....    678.2099967315 Eh

Convergence Acceleration:
 AO-DIIS                CNVDIIS         .... on
   Start iteration      DIISMaxIt       ....    12
   Startup error        DIISStart       ....  0.200000
   # of expansion vecs  DIISMaxEq       ....     5
   Bias factor          DIISBfac        ....   1.050
   Max. coefficient     DIISMaxC        ....  10.000
 MO-DIIS                CNVKDIIS        .... off
 Trust-Rad. Augm. Hess. CNVTRAH         .... off
 SOSCF                  CNVSOSCF        .... on
   Start iteration      SOSCFMaxIt      ....   150
   Startup grad/error   SOSCFStart      ....  0.003300
   Hessian update       SOSCFHessUp     .... L-BFGS
 Level Shifting         CNVShift        .... on
   Level shift para.    LevelShift      ....    0.2500
   Turn off err/grad.   ShiftErr        ....    0.0010
 Zerner damping         CNVZerner       .... off
 Static damping         CNVDamp         .... on
   Fraction old density DampFac         ....    0.7000
   Max. Damping (<1)    DampMax         ....    0.9800
   Min. Damping (>=0)   DampMin         ....    0.0000
   Turn off err/grad.   DampErr         ....    0.1000

SCF Procedure:
 Maximum # iterations   MaxIter         ....   800
 SCF integral mode      SCFMode         .... Direct
   Integral package                     .... SHARK and LIBINT hybrid scheme
 Reset frequency        DirectResetFreq ....    20
 Integral Threshold     Thresh          ....  2.500e-11 Eh
 Primitive CutOff       TCut            ....  2.500e-12 Eh

Convergence Tolerance:
 Convergence Check Mode ConvCheckMode   .... Total+1el-Energy
 Convergence forced     ConvForced      .... 0
 Energy Change          TolE            ....  1.000e-08 Eh
 1-El. energy change                    ....  1.000e-05 Eh
 Orbital Gradient       TolG            ....  1.000e-05
 Orbital Rotation angle TolX            ....  1.000e-05
 DIIS Error             TolErr          ....  5.000e-07

--------------------------------
INITIAL GUESS: MINIMAL BASIS EHT
--------------------------------
The minimal basis has 72 functions
EHT matrix was diagonalized
Basis set overlap was calculated now projecting the orbitals
Using GuessMode=FMatrix for the initial guess
C*T matrix was formed
Effective Fockian was calculated
Effective Fockian was diagonalized
Initial density was built
                      ------------------
                      INITIAL GUESS DONE
                      ------------------
             **** ENERGY FILE WAS UPDATED (m1_00_Pregabalin-GitHubGFN2-B97-3C-TZ.en.tmp) ****
Finished Guess after   0.1 sec
Maximum memory used throughout the entire GUESS-calculation: 17.1 MB


           ************************************************************
           *        Program running with 16 parallel MPI-processes    *
           *              working on a common directory               *
           ************************************************************

-------------------------------------------------------------------------------------------
                                      ORCA LEAN-SCF
                              memory conserving SCF solver
-------------------------------------------------------------------------------------------

----------------------------------------D-I-I-S--------------------------------------------
Iteration    Energy (Eh)           Delta-E    RMSDP     MaxDP     DIISErr   Damp  Time(sec)
-------------------------------------------------------------------------------------------
               ***  Starting incremental Fock matrix formation  ***
    1    -518.4189436628309977     0.00e+00  4.85e-03  1.53e-01  5.16e-01  0.700   0.3
    2    -518.9657454783300636    -5.47e-01  3.85e-03  1.68e-01  3.15e-01  0.700   0.3
    3    -519.2510455471533533    -2.85e-01  2.45e-03  7.25e-02  2.21e-01  0.700   0.3
                               ***Turning on AO-DIIS***
    4    -519.4592720593775539    -2.08e-01  1.65e-03  4.21e-02  1.54e-01  0.700   0.3
    5    -519.6045323471983011    -1.45e-01  1.19e-03  2.96e-02  1.08e-01  0.700   0.3
    6    -519.7069655668185533    -1.02e-01  8.70e-04  2.41e-02  7.52e-02  0.700   0.3
    7    -519.7795022990385405    -7.25e-02  2.18e-03  7.76e-02  5.26e-02  0.000   0.3
    8    -519.9468613863275550    -1.67e-01  3.44e-04  1.69e-02  3.21e-02  0.000   0.3
    9    -519.9484018651046426    -1.54e-03  1.21e-04  3.91e-03  1.04e-02  0.000   0.3
   10    -519.9484837069016976    -8.18e-05  4.27e-05  1.97e-03  7.43e-03  0.000   0.3
                              *** Initializing SOSCF ***
---------------------------------------S-O-S-C-F--------------------------------------
Iteration    Energy (Eh)           Delta-E    RMSDP     MaxDP     MaxGrad    Time(sec)
--------------------------------------------------------------------------------------
   11    -519.9485637404011413    -8.00e-05  1.91e-05  5.32e-04  9.51e-04     0.3
               *** Restarting incremental Fock matrix formation ***
   12    -519.9485669073246754    -3.17e-06  1.40e-05  7.43e-04  6.83e-05     0.3
   13    -519.9485663124555685     5.95e-07  7.35e-06  2.76e-04  1.15e-04     0.3
   14    -519.9485671477657434    -8.35e-07  4.09e-06  2.92e-04  2.30e-05     0.3
   15    -519.9485671051638747     4.26e-08  2.49e-06  1.70e-04  6.18e-05     0.3
   16    -519.9485671476913922    -4.25e-08  1.99e-06  1.01e-04  4.68e-06     0.3
   17    -519.9485671456172895     2.07e-09  1.09e-06  6.14e-05  6.50e-06     0.3
                 **** Energy Check signals convergence ****

               *****************************************************
               *                     SUCCESS                       *
               *           SCF CONVERGED AFTER  17 CYCLES          *
               *****************************************************

             **** ENERGY FILE WAS UPDATED (m1_00_Pregabalin-GitHubGFN2-B97-3C-TZ.en.tmp) ****

----------------
TOTAL SCF ENERGY
----------------

Total Energy       :       -519.94856714561729 Eh          -14148.51981 eV

Components:
Nuclear Repulsion  :        678.20999673153665 Eh           18455.03225 eV
Electronic Energy  :      -1198.15856387715394 Eh          -32603.55206 eV
One Electron Energy:      -2052.26083368637592 Eh          -55844.85638 eV
Two Electron Energy:        854.10226980922187 Eh           23241.30433 eV

Virial components:
Potential Energy   :      -1038.00270751755011 Eh          -28245.48964 eV
Kinetic Energy     :        518.05414037193282 Eh           14096.96984 eV
Virial Ratio       :          2.00365681234074

DFT components:
N(Alpha)           :       44.000011572350 electrons
N(Beta)            :       44.000011572350 electrons
N(Total)           :       88.000023144701 electrons
E(XC)              :      -73.540074900694 Eh       

---------------
SCF CONVERGENCE
---------------

  Last Energy change         ...   -2.0741e-09  Tolerance :   1.0000e-08
  Last MAX-Density change    ...    6.1363e-05  Tolerance :   1.0000e-07
  Last RMS-Density change    ...    1.0921e-06  Tolerance :   5.0000e-09
  Last DIIS Error            ...    9.5072e-04  Tolerance :   5.0000e-07
  Last Orbital Gradient      ...    6.5043e-06  Tolerance :   1.0000e-05
  Last Orbital Rotation      ...    5.8255e-06  Tolerance :   1.0000e-05


----------------
ORBITAL ENERGIES
----------------

  NO   OCC          E(Eh)            E(eV) 
   0   2.0000     -18.789116      -511.2778 
   1   2.0000     -18.725687      -509.5519 
   2   2.0000     -13.971372      -380.1804 
   3   2.0000     -10.011439      -272.4251 
   4   2.0000      -9.913479      -269.7595 
   5   2.0000      -9.894475      -269.2423 
   6   2.0000      -9.892788      -269.1964 
   7   2.0000      -9.887946      -269.0647 
   8   2.0000      -9.882648      -268.9205 
   9   2.0000      -9.872020      -268.6313 
  10   2.0000      -9.864611      -268.4297 
  11   2.0000      -1.024017       -27.8649 
  12   2.0000      -0.935476       -25.4556 
  13   2.0000      -0.818983       -22.2857 
  14   2.0000      -0.750320       -20.4172 
  15   2.0000      -0.711183       -19.3523 
  16   2.0000      -0.656035       -17.8516 
  17   2.0000      -0.614447       -16.7200 
  18   2.0000      -0.600311       -16.3353 
  19   2.0000      -0.567576       -15.4445 
  20   2.0000      -0.518488       -14.1088 
  21   2.0000      -0.497913       -13.5489 
  22   2.0000      -0.453843       -12.3497 
  23   2.0000      -0.449965       -12.2442 
  24   2.0000      -0.428593       -11.6626 
  25   2.0000      -0.421104       -11.4588 
  26   2.0000      -0.411425       -11.1954 
  27   2.0000      -0.400479       -10.8976 
  28   2.0000      -0.385301       -10.4846 
  29   2.0000      -0.370955       -10.0942 
  30   2.0000      -0.365843        -9.9551 
  31   2.0000      -0.360997        -9.8232 
  32   2.0000      -0.345616        -9.4047 
  33   2.0000      -0.337140        -9.1740 
  34   2.0000      -0.325218        -8.8496 
  35   2.0000      -0.311900        -8.4872 
  36   2.0000      -0.305860        -8.3229 
  37   2.0000      -0.299209        -8.1419 
  38   2.0000      -0.280506        -7.6330 
  39   2.0000      -0.278023        -7.5654 
  40   2.0000      -0.275338        -7.4923 
  41   2.0000      -0.269821        -7.3422 
  42   2.0000      -0.230455        -6.2710 
  43   2.0000      -0.201897        -5.4939 
  44   0.0000      -0.021233        -0.5778 
  45   0.0000       0.014699         0.4000 
  46   0.0000       0.023412         0.6371 
  47   0.0000       0.034822         0.9476 
  48   0.0000       0.050592         1.3767 
  49   0.0000       0.058326         1.5871 
  50   0.0000       0.071061         1.9337 
  51   0.0000       0.080892         2.2012 
  52   0.0000       0.087223         2.3735 
  53   0.0000       0.094974         2.5844 
  54   0.0000       0.100949         2.7470 
*Only the first 10 virtual orbitals were printed.

                    ********************************
                    * MULLIKEN POPULATION ANALYSIS *
                    ********************************

-----------------------
MULLIKEN ATOMIC CHARGES
-----------------------
   0 O :   -0.512037
   1 C :    0.308257
   2 O :   -0.397863
   3 C :   -0.280340
   4 H :    0.183861
   5 C :   -0.166850
   6 C :   -0.427472
   7 H :    0.154666
   8 C :   -0.100231
   9 C :   -0.526735
  10 H :    0.143673
  11 H :    0.201066
  12 H :    0.158015
  13 C :   -0.464011
  14 H :    0.154344
  15 H :    0.168204
  16 H :    0.161355
  17 H :    0.165560
  18 H :    0.164045
  19 H :    0.201290
  20 C :   -0.200716
  21 N :   -0.673952
  22 H :    0.309521
  23 H :    0.310735
  24 H :    0.152269
  25 H :    0.153378
  26 H :    0.231423
  27 H :    0.428546
Sum of atomic charges:    0.0000000

--------------------------------
MULLIKEN REDUCED ORBITAL CHARGES
--------------------------------
  0 O s       :     3.770462  s :     3.770462
      pz      :     1.641580  p :     4.703275
      px      :     1.736946
      py      :     1.324748
      dz2     :     0.011075  d :     0.038300
      dxz     :     0.007188
      dyz     :     0.015111
      dx2y2   :     0.004303
      dxy     :     0.000623

  1 C s       :     3.122018  s :     3.122018
      pz      :     0.790341  p :     2.448744
      px      :     0.765106
      py      :     0.893297
      dz2     :     0.026593  d :     0.120981
      dxz     :     0.027936
      dyz     :     0.049023
      dx2y2   :     0.008689
      dxy     :     0.008741

  2 O s       :     3.839461  s :     3.839461
      pz      :     1.324272  p :     4.523738
      px      :     1.471819
      py      :     1.727646
      dz2     :     0.016661  d :     0.034664
      dxz     :     0.005603
      dyz     :     0.004846
      dx2y2   :     0.003995
      dxy     :     0.003559

  3 C s       :     3.081707  s :     3.081707
      pz      :     1.013296  p :     3.156056
      px      :     1.174874
      py      :     0.967887
      dz2     :     0.011504  d :     0.042577
      dxz     :     0.003927
      dyz     :     0.008954
      dx2y2   :     0.011897
      dxy     :     0.006295

  4 H s       :     0.816139  s :     0.816139

  5 C s       :     3.179005  s :     3.179005
      pz      :     1.053981  p :     2.938280
      px      :     0.953843
      py      :     0.930456
      dz2     :     0.013700  d :     0.049564
      dxz     :     0.004892
      dyz     :     0.008393
      dx2y2   :     0.009685
      dxy     :     0.012894

  6 C s       :     3.242253  s :     3.242253
      pz      :     1.089784  p :     3.140318
      px      :     0.974281
      py      :     1.076253
      dz2     :     0.011896  d :     0.044901
      dxz     :     0.004969
      dyz     :     0.007648
      dx2y2   :     0.011043
      dxy     :     0.009346

  7 H s       :     0.845334  s :     0.845334

  8 C s       :     3.110316  s :     3.110316
      pz      :     0.966873  p :     2.939164
      px      :     0.933553
      py      :     1.038738
      dz2     :     0.011637  d :     0.050752
      dxz     :     0.009083
      dyz     :     0.009737
      dx2y2   :     0.010100
      dxy     :     0.010195

  9 C s       :     3.250995  s :     3.250995
      pz      :     0.974196  p :     3.238331
      px      :     1.156122
      py      :     1.108013
      dz2     :     0.008679  d :     0.037409
      dxz     :     0.006127
      dyz     :     0.008917
      dx2y2   :     0.005082
      dxy     :     0.008603

 10 H s       :     0.856327  s :     0.856327

 11 H s       :     0.798934  s :     0.798934

 12 H s       :     0.841985  s :     0.841985

 13 C s       :     3.235207  s :     3.235207
      pz      :     1.090623  p :     3.191015
      px      :     1.016296
      py      :     1.084096
      dz2     :     0.012041  d :     0.037789
      dxz     :     0.004165
      dyz     :     0.004641
      dx2y2   :     0.007041
      dxy     :     0.009901

 14 H s       :     0.845656  s :     0.845656

 15 H s       :     0.831796  s :     0.831796

 16 H s       :     0.838645  s :     0.838645

 17 H s       :     0.834440  s :     0.834440

 18 H s       :     0.835955  s :     0.835955

 19 H s       :     0.798710  s :     0.798710

 20 C s       :     3.210354  s :     3.210354
      pz      :     1.092819  p :     2.933947
      px      :     0.835140
      py      :     1.005987
      dz2     :     0.012941  d :     0.056415
      dxz     :     0.007466
      dyz     :     0.008919
      dx2y2   :     0.011789
      dxy     :     0.015299

 21 N s       :     3.564232  s :     3.564232
      pz      :     1.361787  p :     4.072755
      px      :     1.161168
      py      :     1.549800
      dz2     :     0.015296  d :     0.036965
      dxz     :     0.001949
      dyz     :     0.001841
      dx2y2   :     0.003905
      dxy     :     0.013974

 22 H s       :     0.690479  s :     0.690479

 23 H s       :     0.689265  s :     0.689265

 24 H s       :     0.847731  s :     0.847731

 25 H s       :     0.846622  s :     0.846622

 26 H s       :     0.768577  s :     0.768577

 27 H s       :     0.571454  s :     0.571454



                     *******************************
                     * LOEWDIN POPULATION ANALYSIS *
                     *******************************

----------------------
LOEWDIN ATOMIC CHARGES
----------------------
   0 O :   -0.519731
   1 C :    0.343056
   2 O :   -0.450297
   3 C :   -0.230197
   4 H :    0.185458
   5 C :   -0.201103
   6 C :   -0.281920
   7 H :    0.156981
   8 C :   -0.224272
   9 C :   -0.422539
  10 H :    0.150359
  11 H :    0.174677
  12 H :    0.153523
  13 C :   -0.418434
  14 H :    0.153401
  15 H :    0.152344
  16 H :    0.150567
  17 H :    0.161227
  18 H :    0.156106
  19 H :    0.179761
  20 C :   -0.204009
  21 N :   -0.548651
  22 H :    0.260278
  23 H :    0.257894
  24 H :    0.149810
  25 H :    0.132579
  26 H :    0.207759
  27 H :    0.375374

-------------------------------
LOEWDIN REDUCED ORBITAL CHARGES
-------------------------------
  0 O s       :     3.518399  s :     3.518399
      pz      :     1.647409  p :     4.727367
      px      :     1.709888
      py      :     1.370070
      dz2     :     0.063864  d :     0.273965
      dxz     :     0.038304
      dyz     :     0.073499
      dx2y2   :     0.053716
      dxy     :     0.044582

  1 C s       :     2.751243  s :     2.751243
      pz      :     0.981115  p :     2.637000
      px      :     0.746411
      py      :     0.909473
      dz2     :     0.068630  d :     0.268702
      dxz     :     0.054624
      dyz     :     0.111898
      dx2y2   :     0.016863
      dxy     :     0.016687

  2 O s       :     3.530090  s :     3.530090
      pz      :     1.494409  p :     4.646236
      px      :     1.455419
      py      :     1.696407
      dz2     :     0.090381  d :     0.273971
      dxz     :     0.057541
      dyz     :     0.081617
      dx2y2   :     0.023904
      dxy     :     0.020530

  3 C s       :     2.915659  s :     2.915659
      pz      :     1.086496  p :     3.240611
      px      :     1.130848
      py      :     1.023267
      dz2     :     0.018760  d :     0.073927
      dxz     :     0.006249
      dyz     :     0.017335
      dx2y2   :     0.020857
      dxy     :     0.010727

  4 H s       :     0.814542  s :     0.814542

  5 C s       :     2.895848  s :     2.895848
      pz      :     1.107687  p :     3.211350
      px      :     1.059435
      py      :     1.044229
      dz2     :     0.023952  d :     0.093905
      dxz     :     0.009419
      dyz     :     0.016319
      dx2y2   :     0.018015
      dxy     :     0.026200

  6 C s       :     2.935255  s :     2.935255
      pz      :     1.115556  p :     3.267298
      px      :     1.055438
      py      :     1.096304
      dz2     :     0.020087  d :     0.079367
      dxz     :     0.009037
      dyz     :     0.012178
      dx2y2   :     0.019868
      dxy     :     0.018197

  7 H s       :     0.843019  s :     0.843019

  8 C s       :     2.894659  s :     2.894659
      pz      :     1.082162  p :     3.232705
      px      :     1.059171
      py      :     1.091372
      dz2     :     0.023623  d :     0.096909
      dxz     :     0.017720
      dyz     :     0.017071
      dx2y2   :     0.017996
      dxy     :     0.020499

  9 C s       :     2.980808  s :     2.980808
      pz      :     1.085586  p :     3.380290
      px      :     1.150422
      py      :     1.144282
      dz2     :     0.016173  d :     0.061441
      dxz     :     0.010432
      dyz     :     0.014776
      dx2y2   :     0.007404
      dxy     :     0.012656

 10 H s       :     0.849641  s :     0.849641

 11 H s       :     0.825323  s :     0.825323

 12 H s       :     0.846477  s :     0.846477

 13 C s       :     2.986447  s :     2.986447
      pz      :     1.130836  p :     3.370140
      px      :     1.101418
      py      :     1.137886
      dz2     :     0.018928  d :     0.061847
      dxz     :     0.007437
      dyz     :     0.007270
      dx2y2   :     0.011765
      dxy     :     0.016448

 14 H s       :     0.846599  s :     0.846599

 15 H s       :     0.847656  s :     0.847656

 16 H s       :     0.849433  s :     0.849433

 17 H s       :     0.838773  s :     0.838773

 18 H s       :     0.843894  s :     0.843894

 19 H s       :     0.820239  s :     0.820239

 20 C s       :     2.928112  s :     2.928112
      pz      :     1.115887  p :     3.170012
      px      :     0.972467
      py      :     1.081657
      dz2     :     0.022765  d :     0.105885
      dxz     :     0.014232
      dyz     :     0.014728
      dx2y2   :     0.022311
      dxy     :     0.031847

 21 N s       :     3.283912  s :     3.283912
      pz      :     1.397276  p :     4.205967
      px      :     1.236330
      py      :     1.572362
      dz2     :     0.021732  d :     0.058772
      dxz     :     0.005220
      dyz     :     0.003104
      dx2y2   :     0.007695
      dxy     :     0.021021

 22 H s       :     0.739722  s :     0.739722

 23 H s       :     0.742106  s :     0.742106

 24 H s       :     0.850190  s :     0.850190

 25 H s       :     0.867421  s :     0.867421

 26 H s       :     0.792241  s :     0.792241

 27 H s       :     0.624626  s :     0.624626



                      *****************************
                      * MAYER POPULATION ANALYSIS *
                      *****************************

  NA   - Mulliken gross atomic population
  ZA   - Total nuclear charge
  QA   - Mulliken gross atomic charge
  VA   - Mayer's total valence
  BVA  - Mayer's bonded valence
  FA   - Mayer's free valence

  ATOM       NA         ZA         QA         VA         BVA        FA
  0 O      8.5120     8.0000    -0.5120     1.9367     1.9367     0.0000
  1 C      5.6917     6.0000     0.3083     4.1471     4.1471    -0.0000
  2 O      8.3979     8.0000    -0.3979     2.0805     2.0805    -0.0000
  3 C      6.2803     6.0000    -0.2803     3.3604     3.3604    -0.0000
  4 H      0.8161     1.0000     0.1839     0.9491     0.9491    -0.0000
  5 C      6.1668     6.0000    -0.1668     3.5608     3.5608    -0.0000
  6 C      6.4275     6.0000    -0.4275     3.6523     3.6523    -0.0000
  7 H      0.8453     1.0000     0.1547     0.9655     0.9655    -0.0000
  8 C      6.1002     6.0000    -0.1002     3.6649     3.6649     0.0000
  9 C      6.5267     6.0000    -0.5267     3.7277     3.7277     0.0000
 10 H      0.8563     1.0000     0.1437     0.9578     0.9578     0.0000
 11 H      0.7989     1.0000     0.2011     0.9657     0.9657     0.0000
 12 H      0.8420     1.0000     0.1580     0.9538     0.9538     0.0000
 13 C      6.4640     6.0000    -0.4640     3.7062     3.7062     0.0000
 14 H      0.8457     1.0000     0.1543     0.9600     0.9600    -0.0000
 15 H      0.8318     1.0000     0.1682     0.9512     0.9512     0.0000
 16 H      0.8386     1.0000     0.1614     0.9517     0.9517     0.0000
 17 H      0.8344     1.0000     0.1656     0.9525     0.9525     0.0000
 18 H      0.8360     1.0000     0.1640     0.9527     0.9527    -0.0000
 19 H      0.7987     1.0000     0.2013     0.9451     0.9451    -0.0000
 20 C      6.2007     6.0000    -0.2007     3.6586     3.6586     0.0000
 21 N      7.6740     7.0000    -0.6740     2.7791     2.7791     0.0000
 22 H      0.6905     1.0000     0.3095     0.8758     0.8758     0.0000
 23 H      0.6893     1.0000     0.3107     0.8744     0.8744     0.0000
 24 H      0.8477     1.0000     0.1523     0.9467     0.9467     0.0000
 25 H      0.8466     1.0000     0.1534     0.9284     0.9284     0.0000
 26 H      0.7686     1.0000     0.2314     0.9637     0.9637    -0.0000
 27 H      0.5715     1.0000     0.4285     0.8042     0.8042     0.0000

  Mayer bond orders larger than 0.100000
B(  0-O ,  1-C ) :   1.1359 B(  0-O , 27-H ) :   0.7411 B(  1-C ,  2-O ) :   1.9522 
B(  1-C ,  3-C ) :   0.9620 B(  3-C ,  4-H ) :   0.9278 B(  3-C ,  5-C ) :   0.7970 
B(  3-C , 26-H ) :   0.8812 B(  5-C ,  6-C ) :   0.9651 B(  5-C , 19-H ) :   0.9699 
B(  5-C , 20-C ) :   0.9066 B(  6-C ,  7-H ) :   0.9377 B(  6-C ,  8-C ) :   0.9398 
B(  6-C , 18-H ) :   0.9684 B(  8-C ,  9-C ) :   0.9620 B(  8-C , 13-C ) :   0.9449 
B(  8-C , 17-H ) :   0.9485 B(  9-C , 10-H ) :   0.9535 B(  9-C , 11-H ) :   0.9511 
B(  9-C , 12-H ) :   0.9585 B( 13-C , 14-H ) :   0.9653 B( 13-C , 15-H ) :   0.9622 
B( 13-C , 16-H ) :   0.9641 B( 20-C , 21-N ) :   1.0438 B( 20-C , 24-H ) :   0.9479 
B( 20-C , 25-H ) :   0.9474 B( 21-N , 22-H ) :   0.8661 B( 21-N , 23-H ) :   0.8706 



------------------
HIRSHFELD ANALYSIS
------------------

Total integrated alpha density =     44.000011572
Total integrated beta density  =     44.000011572

  ATOM     CHARGE      SPIN    
   0 O   -0.180225    0.000000
   1 C    0.215753    0.000000
   2 O   -0.281773    0.000000
   3 C   -0.049337    0.000000
   4 H    0.035178    0.000000
   5 C   -0.009658    0.000000
   6 C   -0.043987    0.000000
   7 H    0.022877    0.000000
   8 C   -0.008321    0.000000
   9 C   -0.085375    0.000000
  10 H    0.021703    0.000000
  11 H    0.023080    0.000000
  12 H    0.024915    0.000000
  13 C   -0.080334    0.000000
  14 H    0.024343    0.000000
  15 H    0.025613    0.000000
  16 H    0.023569    0.000000
  17 H    0.019393    0.000000
  18 H    0.021490    0.000000
  19 H    0.026570    0.000000
  20 C    0.002571    0.000000
  21 N   -0.215817    0.000000
  22 H    0.103947    0.000000
  23 H    0.104310    0.000000
  24 H    0.027398    0.000000
  25 H    0.014088    0.000000
  26 H    0.037740    0.000000
  27 H    0.180265    0.000000

  TOTAL  -0.000023    0.000000

-------
TIMINGS
-------

Total SCF time: 0 days 0 hours 0 min 5 sec 

Total time                  ....       5.525 sec
Sum of individual times     ....       5.443 sec  ( 98.5%)

SCF preparation             ....       0.140 sec  (  2.5%)
Fock matrix formation       ....       4.512 sec  ( 81.7%)
  Startup                   ....       0.011 sec  (  0.3% of F)
  Split-RI-J                ....       0.721 sec  ( 16.0% of F)
  XC integration            ....       3.560 sec  ( 78.9% of F)
    XC Preparation          ....       0.000 sec  (  0.0% of XC)
    Basis function eval.    ....       0.928 sec  ( 26.1% of XC)
    Density eval.           ....       0.691 sec  ( 19.4% of XC)
    XC-Functional eval.     ....       0.117 sec  (  3.3% of XC)
    XC-Potential eval.      ....       0.628 sec  ( 17.6% of XC)
Diagonalization             ....       0.000 sec  (  0.0%)
Density matrix formation    ....       0.036 sec  (  0.6%)
Total Energy calculation    ....       0.022 sec  (  0.4%)
Population analysis         ....       0.407 sec  (  7.4%)
Orbital Transformation      ....       0.027 sec  (  0.5%)
Orbital Orthonormalization  ....       0.000 sec  (  0.0%)
DIIS solution               ....       0.226 sec  (  4.1%)
SOSCF solution              ....       0.074 sec  (  1.3%)
Finished LeanSCF after   5.5 sec

Maximum memory used throughout the entire LEANSCF-calculation: 48.4 MB


           ************************************************************
           *        Program running with 16 parallel MPI-processes    *
           *              working on a common directory               *
           ************************************************************

------------------------------------------------------------------------------
                         ORCA PROPERTY INTEGRAL CALCULATIONS
------------------------------------------------------------------------------

GBWName                                   ... m1_00_Pregabalin-GitHubGFN2-B97-3C-TZ.gbw
Number of atoms                           ...     28
Number of basis functions                 ...    270
Max core memory                           ...   6000 MB

Dipole integrals                          ... YES
Quadrupole integrals                      ...  NO
Linear momentum integrals                 ...  NO
Angular momentum integrals                ...  NO
Higher moments length integrals           ...  NO
Higher moments velocity integrals         ...  NO
Kinetic energy integrals                  ...  NO
GIAO right hand sides                     ...  NO
GIAO dipole derivative integrals          ...  NO
SOC integrals                             ...  NO
EPR diamagnetic integrals (GIAO)          ...  NO
EPR gauge integrals                       ...  NO
Field gradient integrals                  ...  NO (   0 nuclei)
Spin-dipole/Fermi contact integrals       ...  NO (   0 nuclei)
Contact density integrals                 ...  NO (   0 nuclei)
Nucleus-orbit integrals                   ...  NO (   0 nuclei)
Geometric perturbations                   ...  NO (  28 nuclei)

Choice of electric origin   ... Center of mass
Position of electric origin ... (  0.0000,  0.0000,  0.0000) 
Choice of magnetic origin   ... GIAO
Position of magnetic origin ... (  0.0000,  0.0000,  0.0000) 

Calculating integrals                     ... Electric Dipole (Length)     done (  0.0 sec)

Property integrals calculated in   0.0 sec

Maximum memory used throughout the entire PROPINT-calculation: 17.7 MB


-------------------------------------------------------------------------------
                          DFT DISPERSION CORRECTION                            
                                                                               
                              DFTD3 V3.1  Rev 1                                
                          USING Becke-Johnson damping                          
-------------------------------------------------------------------------------
The B97-3c composite method is recognized
Using three-body term ABC
Active option DFTDOPT                   ...         4   

molecular C6(AA) [au] = 5675.607250 


            DFT-D V3
 parameters
 s6 scaling factor         :     1.0000 
 a1 scaling factor         :     0.3700 
 s8 scaling factor         :     1.5000 
 a2 scaling factor         :     4.1000 
 Damping factor alpha9(ATM):    16.0000 
 ad hoc parameters k1-k3   :    16.0000     1.3333    -4.0000 

 Edisp/kcal,au: -37.726557502802  -0.060121089861 
 E6   /kcal   : -20.064485574 
 E8   /kcal   : -17.785628677 
 E6(ABC)      :   0.123556749 
 % E8         :  47.143523963 
 % E6(ABC)    :  -0.327506024 

-------------------------   ----------------
Dispersion correction           -0.060121090
-------------------------   ----------------

------------------   -----------------
SRB correction            -0.070771941
------------------   -----------------

-------------------------   --------------------
FINAL SINGLE POINT ENERGY      -520.079460176678
-------------------------   --------------------



           ************************************************************
           *        Program running with 16 parallel MPI-processes    *
           *              working on a common directory               *
           ************************************************************
------------------------------------------------------------------------------
                         ORCA SCF GRADIENT CALCULATION
------------------------------------------------------------------------------

Nuc. rep. gradient        (SHARK) ... done (  0.0 sec)
HCore & Overlap gradient  (SHARK) ... done (  0.0 sec)
Split-RIJ-J gradient      (SHARK) ... done (  0.1 sec)
XC gradient                       ... done (  1.8 sec)
Dispersion correction             ... done (  0.1 sec)

-------------------
DISPERSION GRADIENT
-------------------

   1   O   :   -0.000031444   -0.000757010    0.000223721
   2   C   :   -0.000553163   -0.001452379    0.000120670
   3   O   :   -0.000321201   -0.001025167   -0.000636492
   4   C   :   -0.000596793   -0.000710754    0.000545904
   5   H   :   -0.000214904   -0.000275834    0.000634652
   6   C   :   -0.000532167    0.000489335    0.000104344
   7   C   :    0.000236536    0.000813207    0.000309994
   8   H   :    0.000056617    0.000628279   -0.000045101
   9   C   :    0.001073547    0.000252111    0.000052119
  10   C   :    0.000838730   -0.000126001   -0.001002628
  11   H   :    0.000232805    0.000097173   -0.000603779
  12   H   :    0.000316906   -0.000148423   -0.000692965
  13   H   :    0.000273552   -0.000208965   -0.000406628
  14   C   :    0.000864113    0.000164442    0.000492246
  15   H   :    0.000464449    0.000320486    0.000151103
  16   H   :    0.000445248   -0.000024679    0.000208794
  17   H   :    0.000357597    0.000085268    0.000372592
  18   H   :    0.000526799   -0.000260617    0.000276692
  19   H   :    0.000103237    0.000398019    0.000501184
  20   H   :   -0.000234174    0.000097317   -0.000541162
  21   C   :   -0.000717819    0.000736623   -0.000051922
  22   N   :   -0.000920732    0.000379210   -0.000175040
  23   H   :   -0.000474507    0.000097055   -0.000326400
  24   H   :   -0.000373753    0.000136758   -0.000041102
  25   H   :   -0.000290656    0.000450308    0.000320512
  26   H   :   -0.000173901    0.000497063   -0.000124410
  27   H   :   -0.000399716   -0.000297340    0.000277215
  28   H   :    0.000044794   -0.000355485    0.000055888

Difference to translation invariance:
           :    0.0000000000   -0.0000000000    0.0000000000

Difference to rotation invariance:
           :    0.0000000000   -0.0000000000   -0.0000000000

Norm of the Dispersion gradient    ...    0.0043702471
RMS gradient                       ...    0.0004768331
MAX gradient                       ...    0.0014523788
SRB correction                   ... done

------------------
CARTESIAN GRADIENT
------------------

   1   O   :   -0.002199738    0.007451625   -0.017205834
   2   C   :    0.002483098   -0.003198960   -0.005316676
   3   O   :    0.000574672    0.001521080    0.015356639
   4   C   :   -0.003809517    0.000142771    0.005669380
   5   H   :    0.001892791   -0.001069923    0.000342507
   6   C   :    0.001666135   -0.004282955   -0.007753555
   7   C   :    0.001761262    0.008547739    0.003909771
   8   H   :   -0.000725183   -0.000758503   -0.001398044
   9   C   :   -0.002548379   -0.007331894    0.001916173
  10   C   :    0.003021783    0.002938997   -0.005228062
  11   H   :   -0.000828531   -0.001190075    0.001202477
  12   H   :   -0.001166397   -0.000718100    0.001911031
  13   H   :   -0.000713806    0.000424309    0.001641378
  14   C   :    0.004925535    0.004834442    0.000502951
  15   H   :   -0.001154006   -0.001356482    0.000044701
  16   H   :   -0.001892335   -0.000386246   -0.000391423
  17   H   :   -0.001188038   -0.000930894   -0.001359809
  18   H   :   -0.001088755   -0.001493805   -0.000043606
  19   H   :    0.000335406   -0.001380269    0.000481697
  20   H   :    0.000442293   -0.001346769   -0.001774719
  21   C   :   -0.002213263    0.002007454    0.003456659
  22   N   :    0.004740863   -0.000218463    0.001374853
  23   H   :    0.001391390   -0.002624649   -0.001577775
  24   H   :   -0.001119895    0.002049584    0.001817017
  25   H   :   -0.001495724   -0.000929914    0.001530548
  26   H   :   -0.001161336    0.001840911   -0.002850054
  27   H   :   -0.001397380    0.001243387   -0.001633977
  28   H   :    0.001467055   -0.003784399    0.005375752

Difference to translation invariance:
           :   -0.0000000000   -0.0000000000   -0.0000000000

Difference to rotation invariance:
           :   -0.0000519874    0.0000211879   -0.0000607557

Norm of the Cartesian gradient     ...    0.0345455765
RMS gradient                       ...    0.0037692314
MAX gradient                       ...    0.0172058340

-------
TIMINGS
-------

Total SCF gradient time     ....        2.011 sec

Densities                   ....       0.001 sec  (  0.0%)
One electron gradient       ....       0.040 sec  (  2.0%)
RI-J Coulomb gradient       ....       0.125 sec  (  6.2%)
XC gradient                 ....       1.784 sec  ( 88.7%)

Maximum memory used throughout the entire SCFGRAD-calculation: 56.6 MB
------------------------------------------------------------------------------
                         ORCA GEOMETRY RELAXATION STEP
------------------------------------------------------------------------------

Reading the OPT-File                    .... done
Getting information on internals        .... done
Copying old internal coords+grads       .... done
Making the new internal coordinates     .... (2022 redundants) done
[...]
  7:     54.56   0.000159    0.80  0.000908  (-0.017137 -0.022978 -0.009312)
  8:     80.53   0.000370    1.87  0.001434  ( 0.036864 -0.004047 -0.007649)
  9:     89.51   0.000083    0.42  0.000288  (-0.000656 -0.004183 -0.016425)
 10:    118.65   0.000279    1.41  0.000734  (-0.001495  0.026262  0.006475)
 11:    153.98   0.000709    3.58  0.001437  (-0.017469 -0.016494 -0.029320)
 12:    190.72   0.001555    7.86  0.002545  ( 0.027345 -0.035305 -0.023464)
 13:    226.96   0.000211    1.07  0.000290  (-0.012736  0.009889  0.005463)
 14:    232.09   0.000638    3.22  0.000858  (-0.022642  0.008053  0.016746)
 15:    252.65   0.000086    0.44  0.000107  (-0.007565  0.000619  0.006996)
 16:    265.06   0.006306   31.87  0.007424  ( 0.058173 -0.036989 -0.051685)
 17:    317.85   0.000609    3.08  0.000598  (-0.020704  0.003043  0.012658)
 18:    355.83   0.000284    1.43  0.000249  ( 0.013580 -0.005962  0.005365)
 19:    393.64   0.001955    9.88  0.001550  (-0.031102  0.023572 -0.005193)
 20:    426.14   0.000500    2.53  0.000366  ( 0.017174 -0.007687 -0.003456)
 21:    446.69   0.000835    4.22  0.000583  (-0.005823 -0.006405  0.022540)
 22:    459.22   0.001582    7.99  0.001075  ( 0.016086 -0.025058  0.013724)
 23:    527.40   0.001179    5.96  0.000698  (-0.007830  0.025227 -0.000011)
 24:    561.88   0.007418   37.49  0.004120  ( 0.052407  0.035361 -0.011096)
 25:    634.78   0.004430   22.39  0.002178  ( 0.037145 -0.028190  0.001807)
 26:    692.78   0.015417   77.91  0.006944  ( 0.072448  0.041162  0.001204)
 27:    815.93   0.000275    1.39  0.000105  (-0.004535 -0.006748 -0.006252)
 28:    834.54   0.018822   95.12  0.007038  ( 0.051789  0.064482 -0.014076)
 29:    853.89   0.002227   11.25  0.000814  ( 0.026124  0.010593  0.004380)
 30:    877.66   0.006366   32.17  0.002263  ( 0.045134  0.010801 -0.010478)
 31:    901.35   0.000545    2.75  0.000189  ( 0.003455 -0.010157  0.008572)
 32:    933.69   0.000020    0.10  0.000007  ( 0.000677  0.001854 -0.001662)
 33:    937.55   0.003485   17.61  0.001160  ( 0.030949  0.008139  0.011654)
 34:    967.30   0.000106    0.54  0.000034  ( 0.005234 -0.000099 -0.002604)
 35:    971.79   0.000269    1.36  0.000086  ( 0.007569 -0.004240 -0.003316)
 36:    999.42   0.000630    3.18  0.000197  ( 0.003216 -0.011696  0.007034)
 37:   1030.63   0.001881    9.51  0.000570  (-0.010449 -0.016642  0.013544)
 38:   1083.74   0.001394    7.04  0.000401  ( 0.018689 -0.003938  0.006051)
 39:   1109.15   0.029110  147.11  0.008190  (-0.018523  0.077172 -0.043494)
 40:   1114.97   0.006598   33.35  0.001847  (-0.007942  0.036056 -0.021992)
 41:   1125.11   0.010391   52.51  0.002882  ( 0.011938 -0.042604  0.030406)
 42:   1169.66   0.006014   30.39  0.001604  ( 0.011742 -0.036551  0.011428)
 43:   1191.04   0.001856    9.38  0.000486  ( 0.019451 -0.009332  0.004563)
 44:   1198.34   0.006981   35.28  0.001818  ( 0.012131 -0.038475  0.013803)
 45:   1232.35   0.001852    9.36  0.000469  (-0.001542  0.018600 -0.010984)
 46:   1285.85   0.005147   26.01  0.001249  ( 0.013581 -0.030524  0.011528)
 47:   1294.24   0.000161    0.82  0.000039  ( 0.004434  0.001674  0.004057)
 48:   1309.08   0.000068    0.35  0.000016  ( 0.001708  0.002473 -0.002701)
 49:   1324.74   0.000723    3.65  0.000170  ( 0.007792 -0.007999  0.006751)
 50:   1352.86   0.001495    7.56  0.000345  ( 0.004228 -0.018076  0.000491)
 51:   1357.74   0.000962    4.86  0.000221  ( 0.006305 -0.011986  0.006145)
 52:   1377.44   0.002016   10.19  0.000457  ( 0.002380  0.014014 -0.015960)
 53:   1395.80   0.000509    2.57  0.000114  ( 0.006696  0.004188  0.007173)
 54:   1400.31   0.002851   14.41  0.000635  ( 0.000710  0.016664 -0.018897)
 55:   1404.13   0.005189   26.22  0.001153  ( 0.004037 -0.033703 -0.001017)
 56:   1415.48   0.003695   18.67  0.000815  ( 0.025070 -0.010083  0.009185)
 57:   1422.89   0.002218   11.21  0.000487  (-0.004556 -0.012255  0.017764)
 58:   1468.04   0.002540   12.83  0.000540  (-0.015332  0.005300  0.016634)
 59:   1485.76   0.000133    0.67  0.000028  ( 0.001712 -0.003313 -0.003740)
 60:   1496.67   0.000269    1.36  0.000056  ( 0.001432 -0.006261 -0.003860)
 61:   1502.85   0.001023    5.17  0.000213  (-0.004208 -0.000599 -0.013944)
 62:   1511.36   0.000379    1.92  0.000078  (-0.007346 -0.003320  0.003652)
 63:   1514.22   0.000436    2.20  0.000090  (-0.007166  0.003871  0.004845)
 64:   1523.94   0.002798   14.14  0.000573  ( 0.004032 -0.023445  0.002662)
 65:   1688.84   0.008268   41.78  0.001528  (-0.021896  0.015675 -0.028330)
 66:   1774.04   0.044703  225.91  0.007864  (-0.005798  0.010740  0.087832)
 67:   2914.93   0.016088   81.30  0.001722  ( 0.017558  0.037286 -0.004875)
 68:   2957.91   0.007909   39.97  0.000834  (-0.000791  0.026058  0.012440)
 69:   2971.65   0.001577    7.97  0.000166  (-0.002865 -0.011270 -0.005515)
 70:   2982.46   0.004101   20.72  0.000429  (-0.007087  0.018707 -0.005374)
 71:   2984.27   0.007174   36.25  0.000750  ( 0.015354  0.009976  0.020369)
 72:   2990.18   0.000595    3.01  0.000062  ( 0.004557  0.000405  0.006414)
 73:   2991.31   0.008866   44.81  0.000925  ( 0.022455  0.011312 -0.017111)
 74:   2997.02   0.007447   37.64  0.000775  (-0.013270 -0.023658  0.006297)
 75:   3017.32   0.012871   65.04  0.001331  (-0.003829 -0.007606  0.035477)
 76:   3048.77   0.001799    9.09  0.000184  ( 0.005334 -0.000830 -0.012450)
 77:   3055.31   0.010372   52.42  0.001059  ( 0.003844 -0.030313  0.011213)
 78:   3056.24   0.009419   47.60  0.000962  ( 0.001981 -0.010251  0.029202)
 79:   3061.58   0.012555   63.45  0.001280  (-0.021990  0.023605  0.015459)
 80:   3092.80   0.004361   22.04  0.000440  (-0.019220 -0.007037 -0.004600)
 81:   3442.42   0.000266    1.34  0.000024  (-0.003199  0.001568 -0.003374)
 82:   3531.63   0.000052    0.26  0.000005  (-0.001834  0.000881 -0.000640)
 83:   3666.58   0.006461   32.65  0.000550  ( 0.005632 -0.022514 -0.003360)

* The epsilon (eps) is given for a Dirac delta lineshape.
** The dipole moment derivative (T) already includes vibrational overlap.

The first frequency considered to be a vibration is 6
The total number of vibrations considered is 78


--------------------------
THERMOCHEMISTRY AT 298.15K
--------------------------

Temperature         ...   298.15 K
Pressure            ...     1.00 atm
Total Mass          ...   159.23 AMU
Quasi RRHO          ...     True
Cut-Off Frequency   ...     1.00 cm^-1

Throughout the following assumptions are being made:
  (1) The electronic state is orbitally nondegenerate
  (2) There are no thermally accessible electronically excited states
  (3) Hindered rotations indicated by low frequency modes are not
      treated as such but are treated as vibrations and this may
      cause some error
  (4) All equations used are the standard statistical mechanics
      equations for an ideal gas
  (5) All vibrations are strictly harmonic

freq.      49.17  E(vib)   ...       0.52 
freq.      54.56  E(vib)   ...       0.52 
freq.      80.53  E(vib)   ...       0.48 
freq.      89.51  E(vib)   ...       0.47 
freq.     118.65  E(vib)   ...       0.44 
freq.     153.98  E(vib)   ...       0.40 
freq.     190.72  E(vib)   ...       0.36 
freq.     226.96  E(vib)   ...       0.33 
freq.     232.09  E(vib)   ...       0.32 
freq.     252.65  E(vib)   ...       0.30 
freq.     265.06  E(vib)   ...       0.29 
freq.     317.85  E(vib)   ...       0.25 
freq.     355.83  E(vib)   ...       0.22 
freq.     393.64  E(vib)   ...       0.20 
freq.     426.14  E(vib)   ...       0.18 
freq.     446.69  E(vib)   ...       0.17 
freq.     459.22  E(vib)   ...       0.16 
freq.     527.40  E(vib)   ...       0.13 
freq.     561.88  E(vib)   ...       0.11 
freq.     634.78  E(vib)   ...       0.09 
freq.     692.78  E(vib)   ...       0.07 
freq.     815.93  E(vib)   ...       0.05 
freq.     834.54  E(vib)   ...       0.04 
freq.     853.89  E(vib)   ...       0.04 
freq.     877.66  E(vib)   ...       0.04 
freq.     901.35  E(vib)   ...       0.03 
freq.     933.69  E(vib)   ...       0.03 
freq.     937.55  E(vib)   ...       0.03 
freq.     967.30  E(vib)   ...       0.03 
freq.     971.79  E(vib)   ...       0.03 
freq.     999.42  E(vib)   ...       0.02 
freq.    1030.63  E(vib)   ...       0.02 
freq.    1083.74  E(vib)   ...       0.02 
freq.    1109.15  E(vib)   ...       0.02 
freq.    1114.97  E(vib)   ...       0.01 
freq.    1125.11  E(vib)   ...       0.01 
freq.    1169.66  E(vib)   ...       0.01 
freq.    1191.04  E(vib)   ...       0.01 
freq.    1198.34  E(vib)   ...       0.01 
freq.    1232.35  E(vib)   ...       0.01 
freq.    1285.85  E(vib)   ...       0.01 
freq.    1294.24  E(vib)   ...       0.01 
freq.    1309.08  E(vib)   ...       0.01 
freq.    1324.74  E(vib)   ...       0.01 
freq.    1352.86  E(vib)   ...       0.01 
freq.    1357.74  E(vib)   ...       0.01 
freq.    1377.44  E(vib)   ...       0.01 
freq.    1395.80  E(vib)   ...       0.00 
freq.    1400.31  E(vib)   ...       0.00 
freq.    1404.13  E(vib)   ...       0.00 
freq.    1415.48  E(vib)   ...       0.00 
freq.    1422.89  E(vib)   ...       0.00 
freq.    1468.04  E(vib)   ...       0.00 
freq.    1485.76  E(vib)   ...       0.00 
freq.    1496.67  E(vib)   ...       0.00 
freq.    1502.85  E(vib)   ...       0.00 
freq.    1511.36  E(vib)   ...       0.00 
freq.    1514.22  E(vib)   ...       0.00 
freq.    1523.94  E(vib)   ...       0.00 
freq.    1688.84  E(vib)   ...       0.00 
freq.    1774.04  E(vib)   ...       0.00 
freq.    2914.93  E(vib)   ...       0.00 
freq.    2957.91  E(vib)   ...       0.00 
freq.    2971.65  E(vib)   ...       0.00 
freq.    2982.46  E(vib)   ...       0.00 
freq.    2984.27  E(vib)   ...       0.00 
freq.    2990.18  E(vib)   ...       0.00 
freq.    2991.31  E(vib)   ...       0.00 
freq.    2997.02  E(vib)   ...       0.00 
freq.    3017.32  E(vib)   ...       0.00 
freq.    3048.77  E(vib)   ...       0.00 
freq.    3055.31  E(vib)   ...       0.00 
freq.    3056.24  E(vib)   ...       0.00 
freq.    3061.58  E(vib)   ...       0.00 
freq.    3092.80  E(vib)   ...       0.00 
freq.    3442.42  E(vib)   ...       0.00 
freq.    3531.63  E(vib)   ...       0.00 
freq.    3666.58  E(vib)   ...       0.00 

------------
INNER ENERGY
------------

The inner energy is: U= E(el) + E(ZPE) + E(vib) + E(rot) + E(trans)
    E(el)   - is the total energy from the electronic structure calculation
              = E(kin-el) + E(nuc-el) + E(el-el) + E(nuc-nuc)
    E(ZPE)  - the the zero temperature vibrational energy from the frequency calculation
    E(vib)  - the the finite temperature correction to E(ZPE) due to population
              of excited vibrational states
    E(rot)  - is the rotational thermal energy
    E(trans)- is the translational thermal energy

Summary of contributions to the inner energy U:
Electronic energy                ...   -520.08171459 Eh
Zero point energy                ...      0.24819927 Eh     155.75 kcal/mol
Thermal vibrational correction   ...      0.01047765 Eh       6.57 kcal/mol
Thermal rotational correction    ...      0.00141627 Eh       0.89 kcal/mol
Thermal translational correction ...      0.00141627 Eh       0.89 kcal/mol
-----------------------------------------------------------------------
Total thermal energy                   -519.82020513 Eh


Summary of corrections to the electronic energy:
(perhaps to be used in another calculation)
Total thermal correction                  0.01331019 Eh       8.35 kcal/mol
Non-thermal (ZPE) correction              0.24819927 Eh     155.75 kcal/mol
-----------------------------------------------------------------------
Total correction                          0.26150946 Eh     164.10 kcal/mol


--------
ENTHALPY
--------

The enthalpy is H = U + kB*T
                kB is Boltzmann's constant
Total thermal energy              ...   -519.82020513 Eh 
Thermal Enthalpy correction       ...      0.00094421 Eh       0.59 kcal/mol
-----------------------------------------------------------------------
Total Enthalpy                    ...   -519.81926092 Eh


Note: Only C1 symmetry has been detected, increase convergence thresholds 
      if your molecule has a higher symmetry. Symmetry factor of 1.0 is   
      used for the rotational entropy correction. 
 

Note: Rotational entropy computed according to Herzberg 
Infrared and Raman Spectra, Chapter V,1, Van Nostrand Reinhold, 1945 
Point Group:  C1, Symmetry Number:   1  
Rotational constants in cm-1:     0.035235     0.027678     0.019004 

Vibrational entropy computed according to the QRRHO of S. Grimme
Chem.Eur.J. 2012 18 9955 using a reference frequency of 100.0 cm-1


-------
ENTROPY
-------

The entropy contributions are T*S = T*(S(el)+S(vib)+S(rot)+S(trans))
     S(el)   - electronic entropy
     S(vib)  - vibrational entropy
     S(rot)  - rotational entropy
     S(trans)- translational entropy
The entropies will be listed as multiplied by the temperature to get
units of energy

Electronic entropy                ...      0.00000000 Eh      0.00 kcal/mol
Vibrational entropy               ...      0.01834265 Eh     11.51 kcal/mol
Rotational entropy                ...      0.01465466 Eh      9.20 kcal/mol
Translational entropy             ...      0.01953005 Eh     12.26 kcal/mol
-----------------------------------------------------------------------
Final entropy term                ...      0.05252736 Eh     32.96 kcal/mol

In case the symmetry of your molecule has not been determined correctly
or in case you have a reason to use a different symmetry number we print 
out the resulting rotational entropy values for sn=1,12:

 non-linear molecules -----------------------------------
|  sn= 1 | S(rot)=       0.01465466 Eh      9.20 kcal/mol|
|  sn= 2 | S(rot)=       0.01400021 Eh      8.79 kcal/mol|
|  sn= 3 | S(rot)=       0.01361737 Eh      8.55 kcal/mol|
|  sn= 4 | S(rot)=       0.01334575 Eh      8.37 kcal/mol|
|  sn= 5 | S(rot)=       0.01313506 Eh      8.24 kcal/mol|
|  sn= 6 | S(rot)=       0.01296292 Eh      8.13 kcal/mol|
|  sn= 7 | S(rot)=       0.01281737 Eh      8.04 kcal/mol|
|  sn= 8 | S(rot)=       0.01269129 Eh      7.96 kcal/mol|
|  sn= 9 | S(rot)=       0.01258008 Eh      7.89 kcal/mol|
|  sn=10 | S(rot)=       0.01248060 Eh      7.83 kcal/mol|
|  sn=11 | S(rot)=       0.01239061 Eh      7.78 kcal/mol|
|  sn=12 | S(rot)=       0.01230846 Eh      7.72 kcal/mol|
 linear molecules ---------------------------------------
|  Dinfh | S(rot)=       0.00906768 Eh      5.69 kcal/mol|
|  Cinfv | S(rot)=       0.00972214 Eh      6.10 kcal/mol|
 --------------------------------------------------------


-------------------
GIBBS FREE ENERGY
-------------------

The Gibbs free energy is G = H - T*S

Total enthalpy                    ...   -519.81926092 Eh 
Total entropy correction          ...     -0.05252736 Eh    -32.96 kcal/mol
-----------------------------------------------------------------------
Final Gibbs free energy         ...   -519.87178828 Eh

For completeness - the Gibbs free energy minus the electronic energy
G-E(el)                           ...      0.20992630 Eh    131.73 kcal/mol


Maximum memory used throughout the entire PROP-calculation: 75.0 MB

--------------------------------
SUGGESTED CITATIONS FOR THIS RUN
--------------------------------

Below you find a list of papers that are relevant to this ORCA run
We neither can nor want to force you to cite these papers, but we appreciate if you do
You receive ORCA, which is the product of decades of hard work by many enthusiastic individuals, for free
The only thing we kindly ask in return is that you cite our papers,
We deeply appreciate it, if you show your appreciation for ORCA by not just citing the generic ORCA reference.

Please note that relegating all ORCA citations to the supporting information does *not* help us.
SI sections are not indexed - citations you put there will not count into any citation statistics
But we need these citations in order to attract the funding resources that allow us to do what we are doing

Therefore, if you are a happy ORCA user, please consider citing a few of the papers listed below in the main body of your paper

In addition to the list printed below, the program has created the file m1_00_Pregabalin-GitHubGFN2-B97-3C-TZ.bibtex that contains the list in bibtex format
You can import this file easily into all common literature databanks and citation aid programs


List of essential papers. We consider these as the minimum necessary citations

  1. Neese,F.
     Software update: the ORCA program system, version 5.0
     WIRES Comput. Molec. Sci., 2022 12(1)e1606
     doi.org/10.1002/wcms.1606

List of papers to cite with high priority. The work reported in these papers was absolutely
necessary for this run to complete.
Our perspective: the developers of density functionals and basis sets usually get cited in chemistry papers
Good! But without the algorithms to do something with them, the functionals or basis sets would not do anything.
Hence, in our opinion, the algorithm design and method developments papers are equally worthy of getting cited

  1. Neese,F.
     An improvement of the resolution of the identity approximation for the formation of the Coulomb matrix
     J. Comp. Chem., 2003 24(14)1740-1747
     doi.org/10.1002/jcc.10318
  2. Bykov,D.; Petrenko,T.; Izsak,R.; Kossmann,S.; Becker,U.; Valeev,E.; Neese,F.
     Efficient implementation of the analytic second derivatives of Hartree-Fock and hybrid DFT energies: a detailed analysis of different approximations
     Molec. Phys., 2015 113 1961-1977
     doi.org/10.1080/00268976.2015.1025114
  3. Neese,F.
     The SHARK Integral Generation and Digestion System
     J. Comp. Chem., 2022  1-16
     doi.org/10.1002/jcc.26942
  4. Grimme,S.; Antony,J.; Ehrlich,S.; Krieg,H.
     A consistent and accurate ab initio parametrization of density functional dispersion correction (DFT-D) for the 94 elements H-Pu
     J. Chem. Phys., 2010 132 154104
     doi.org/10.1063/1.3382344
  5. Grimme,S.; Ehrlich,S.; Goerigk,L.
     Effect of the damping function in dispersion corrected density functional theory
     J. Comput. Chem., 2011 32(7)1456-1465
     doi.org/10.1002/jcc.21759

List of suggested additional citations. These are papers that are important in the 'surrounding' of 
of this run, or papers that preceded the highly important papers. If you like your results we are grateful for a citation.

  1. Neese,F.
     The ORCA program system
     WIRES Comput. Molec. Sci., 2012 2(1)73-78
     doi.org/10.1002/wcms.81
  2. Neese,F.
     Software update: the ORCA program system, version 4.0
     WIRES Comput. Molec. Sci., 2018 8(1)1-6
     doi.org/10.1002/wcms.1327
  3. Neese,F.; Wennmohs,F.; Becker,U.; Riplinger,C.
     The ORCA quantum chemistry program package
     J. Chem. Phys., 2020 152 Art. No. L224108
     doi.org/10.1063/5.0004608

List of optional additional citations

  1. Neese,F.
     Approximate second-order SCF convergence for spin unrestricted wavefunctions
     Chem. Phys. Lett., 2000 325(1-3)93-98
     doi.org/10.1016/s0009-2614(00)00662-x

Timings for individual modules:

Sum of individual times          ...      164.420 sec (=   2.740 min)
Startup calculation              ...       23.930 sec (=   0.399 min)  14.6 %
SCF iterations                   ...       35.978 sec (=   0.600 min)  21.9 %
Property integrals               ...       38.595 sec (=   0.643 min)  23.5 %
SCF Response                     ...       25.215 sec (=   0.420 min)  15.3 %
Property calculations            ...       18.102 sec (=   0.302 min)  11.0 %
SCF Gradient evaluation          ...       22.543 sec (=   0.376 min)  13.7 %
Geometry relaxation              ...        0.057 sec (=   0.001 min)   0.0 %
                             ****ORCA TERMINATED NORMALLY****
TOTAL RUN TIME: 0 days 0 hours 2 minutes 46 seconds 612 msec
