
                                 *****************
                                 * O   R   C   A *
                                 *****************

                                            #,                                       
                                            ###                                      
                                            ####                                     
                                            #####                                    
                                            ######                                   
                                           ########,                                 
                                     ,,################,,,,,                         
                               ,,#################################,,                 
                          ,,##########################################,,             
                       ,#########################################, ''#####,          
                    ,#############################################,,   '####,        
                  ,##################################################,,,,####,       
                ,###########''''           ''''###############################       
              ,#####''   ,,,,##########,,,,          '''####'''          '####       
            ,##' ,,,,###########################,,,                        '##       
           ' ,,###''''                  '''############,,,                           
         ,,##''                                '''############,,,,        ,,,,,,###''
      ,#''                                            '''#######################'''  
     '                                                          ''''####''''         
             ,#######,   #######,   ,#######,      ##                                
            ,#'     '#,  ##    ##  ,#'     '#,    #''#        ,####,   ,####,        
            ##       ##  ##   ,#'  ##            #'  '#       #'       #'  '#        
            ##       ##  #######   ##           ,######,      #####,   #    #        
            '#,     ,#'  ##    ##  '#,     ,#' ,#      #,     #,   #   #,  ,#        
             '#######'   ##     ##  '#######'  #'      '#     '####' # '####'        



                #########################################################
                #                        -***-                          #
                #          Department of theory and spectroscopy        #
                #                                                       #
                #                      Frank Neese                      #
                #                                                       #
                #     Directorship, Architecture, Infrastructure        #
                #                    SHARK, DRIVERS                     #
                #        Core code/Algorithms in most modules           #
                #                                                       #
                #        Max Planck Institute fuer Kohlenforschung      #
                #                Kaiser Wilhelm Platz 1                 #
                #                 D-45470 Muelheim/Ruhr                 #
                #                      Germany                          #
                #                                                       #
                #                  All rights reserved                  #
                #                        -***-                          #
                #########################################################


                         Program Version 6.0.1  -  RELEASE   -


 With contributions from (in alphabetic order):
[Max-Planck-Institut fuer Kohlenforschung]                               
  Daniel Aravena         : Magnetic Suceptibility                        
  Michael Atanasov       : Ab Initio Ligand Field Theory (pilot matlab implementation)
  Alexander A. Auer      : GIAO ZORA, VPT2 properties, NMR spectrum      
  Ute Becker             : All parallelization in ORCA, NUMFREQ, NUMCALC 
  Giovanni Bistoni       : ED, misc. LED, open-shell LED, HFLD           
  Martin Brehm           : Molecular dynamics                            
  Dmytro Bykov           : pre 5.0 version of the SCF Hessian            
  Marcos Casanova-Páez   : Triplet and SCS-CIS(D). UHF-(DLPNO)-IP/EA/STEOM-CCSD. UHF-CVS-IP/STEOM-CCSD   
  Vijay G. Chilkuri      : MRCI spin determinant printing, contributions to CSF-ICE 
  Pauline Colinet        : FMM embedding                                 
  Dipayan Datta          : RHF DLPNO-CCSD density                        
  Achintya Kumar Dutta   : EOM-CC, STEOM-CC                              
  Nicolas Foglia         : Exact transition moments, OPA infrastructure, MCD improvements    
  Dmitry Ganyushin       : Spin-Orbit,Spin-Spin,Magnetic field MRCI      
  Miquel Garcia-Rates    : C-PCM and meta-GGA Hessian, CCSD/C-PCM, Gaussian charge scheme 
  Tiago L. C. Gouveia    : GS-ROHF, GS-ROCIS                             
  Yang Guo               : DLPNO-NEVPT2, F12-NEVPT2, CIM, IAO-localization        
  Andreas Hansen         : Spin unrestricted coupled pair/coupled cluster methods 
  Ingolf Harden          : AUTO-CI MPn and infrastructure                
  Benjamin Helmich-Paris : MC-RPA, TRAH-(SCF,CASSCF), AVAS, COSX integrals, SCF dyn. polar. 
  Lee Huntington         : MR-EOM, pCC                                   
  Robert Izsak           : Overlap fitted RIJCOSX, COSX-SCS-MP3, EOM     
  Riya Kayal             : Wick's Theorem for AUTO-CI, AUTO-CI UHF-CCSDT 
  Emily Kempfer          : AUTO-CI, RHF CISDT and CCSDT                  
  Christian Kollmar      : KDIIS, OOCD, Brueckner-CCSD(T), CCSD density, CASPT2, CASPT2-K, improved NEVPT2 
  Axel Koslowski         : Symmetry handling                             
  Simone Kossmann        : meta-GGA functionals, TD-DFT gradient, OOMP2, (MP2 Hessian; deprecated post 5.0) 
  Lucas Lang             : DCDCAS                                        
  Marvin Lechner         : AUTO-CI (C++ implementation), FIC-MRCC        
  Spencer Leger          : CASSCF response                               
  Dagmar Lenk            : GEPOL surface, SMD, ORCA-2-JSON               
  Dimitrios Liakos       : Extrapolation schemes; Compound Job, initial MDCI parallelization 
  Dimitrios Manganas     : Further ROCIS development; embedding schemes. LFT, Crystal Embedding 
  Dimitrios Pantazis     : SARC Basis sets                               
  Anastasios Papadopoulos: AUTO-CI, single reference methods and gradients 
  Taras Petrenko         : pre 6.0 DFT Hessian and TD-DFT gradient, (ASA, deprecated), ECA, 1-Electron XAS/XES, NRVS 
  Peter Pinski           : DLPNO-MP2, DLPNO-MP2 Gradient                 
  Christoph Reimann      : Effective Core Potentials                     
  Marius Retegan         : Local ZFS, SOC                                
  Christoph Riplinger    : Optimizer, TS searches, QM/MM, DLPNO-CCSD(T), (RO)-DLPNO pert. Triples 
  Michael Roemelt        : Original ROCIS implementation                 
  Masaaki Saitow         : Open-shell DLPNO-CCSD energy and density      
  Barbara Sandhoefer     : DKH picture change effects                    
  Kantharuban Sivalingam : CASSCF convergence/infrastructure, NEVPT2 and variants, FIC-MRCI 
  Bernardo de Souza      : ESD, SOC TD-DFT                               
  Georgi L. Stoychev     : AutoAux, RI-MP2 NMR, DLPNO-MP2 response, X2C  
  Van Anh Tran           : RI-MP2 g-tensors                              
  Willem Van den Heuvel  : Paramagnetic NMR                              
  Zikuan Wang            : NOTCH, Electric field optimization            
  Frank Wennmohs         : Technical directorship and infrastructure     
  Hang Xu                : AUTO-CI-Response properties                   
                                                                         
[FACCTs GmbH]                                                            
  Markus Bursch, Miquel Garcia-Rates, Christoph Riplinger, Bernardo de Souza, Georgi L. Stoychev 
                                                                 
  APM, Basis sets (HGBS, AHGBS, def-TZVP (Ac-Lr), def2-XVPD (La-Lu)), CI-OPT, improved COSX, DLPNO-Multilevel,           
  DOCKER, DRACO, updates on ESD, GOAT, IRC, LR-CPCM, MBIS, meta-GGA TD-DFT gradient, ML-optimized integration grids, 
  MM, NACMEs, nearIR, NEB, NEB-TS, NL-DFT gradient (VV10), 2- and 3-layer-ONIOM, interface openCOSMO-RS, QMMM,   
  Crystal-QMMM, SF, symmetry and pop. for TD-DFT, r2SCAN hybrids, SOLVATOR                                   
                                                                         
[Other institutions]                                                     
  V. Asgeirsson          : NEB                                           
  Christoph Bannwarth    : sTDA-DFT, sTD-DFT, PBEh-3c, B97-3c, D3        
  Sebastian Ehlert       : rSCAN, r2SCAN, r2SCAN-3c, D4, dhf basis sets  
  Marvin Friede          : D4 for Fr, Ra, Ac-Lr                          
  Lars Goerigk           : TD-DFT with DH, B97 family of functionals     
  Stefan Grimme          : VdW corrections, initial TS optimization, DFT functionals, gCP, sTDA/sTD-DF 
  Waldemar Hujo          : DFT-NL                                        
  H. Jonsson             : NEB                                           
  Holger Kruse           : gCP                                           
  Marcel Mueller         : wB97X-3c, vDZP basis set                      
  Hagen Neugebauer       : wr2SCAN                                       
  Tobias Risthaus        : range-separated hybrid DFT                    
  Lukas Wittmann         : regularized MP2, r2SCAN double-hybrids, wr2SCAN        
                                                                         
We gratefully acknowledge several colleagues who have allowed us to      
interface, adapt or use parts of their codes:                            
  Ed Valeev, F. Pavosevic, A. Kumar             : LibInt (2-el integral package), F12 methods 
  Garnet Chan, S. Sharma, J. Yang, R. Olivares  : DMRG                   
  Ulf Ekstrom                                   : XCFun DFT Library      
  Mihaly Kallay                                 : mrcc  (arbitrary order and MRCC methods)
  Frank Weinhold                                : gennbo (NPA and NBO analysis)           
  Simon Mueller                                 : openCOSMO-RS                            
  Christopher J. Cramer and Donald G. Truhlar   : smd solvation model                     
  S Lehtola, MJT Oliveira, MAL Marques          : LibXC Library                           
  Liviu Ungur et al                             : ANISO software                          


 Your calculation uses the libint2 library for the computation of 2-el integrals
 For citations please refer to: http://libint.valeyev.net

 Your ORCA version has been built with support for libXC version: 6.2.2
 For citations please refer to: https://libxc.gitlab.io

 This ORCA versions uses:
   CBLAS   interface :  Fast vector & matrix operations
   LAPACKE interface :  Fast linear algebra routines
   SCALAPACK package :  Parallel linear algebra routines
   Shared memory     :  Shared parallel matrices
   BLAS/LAPACK       :  OpenBLAS 0.3.27  USE64BITINT DYNAMIC_ARCH NO_AFFINITY Zen SINGLE_THREADED
        Core in use  :  Zen
   Copyright (c) 2011-2014, The OpenBLAS Project


NOTE: MaxCore=6000 MB was set to SCF,MP2,MDCI,CIPSI,MRCI and CIS
      => If you want to overwrite this, your respective input block should be placed after the MaxCore statement
Your calculation utilizes the atom-pairwise dispersion correction
with the Becke-Johnson damping scheme (D3BJ)


Your calculation employs the composite approach B97-3c by Grimme and coworkers.
For the correct reference, please check the publication list of the Grimme group:
http://www.thch.uni-bonn.de/tc/index.php?section=publikationen&subsection=grimme#2017
   

XCFun DFT library Copyright 2009-2010 Ulf Ekstrom and contributors.
See http://admol.org/xcfun for more information.
This is free software; see the source code for copying conditions.
There is ABSOLUTELY NO WARRANTY; not even for MERCHANTABILITY or FITNESS FOR A PARTICULAR PURPOSE.
For details see the documentation.
Scientific users of this library should cite U. Ekstrom, L. Visscher, R. Bast, A. J. Thorvaldsen and K. Ruud;
J.Chem.Theor.Comp. 2010, DOI: 10.1021/ct100117s
XCFun Version 0.99 

================================================================================

----- Orbital basis set information -----
Your calculation utilizes the basis: def2-mTZVP
----- AuxJ basis set information -----
Your calculation utilizes the basis: def2-mTZVP/J
================================================================================
                                        WARNINGS
                       Please study these warnings very carefully!
================================================================================


WARNING: Geometry Optimization
  ===> : Switching off AutoStart
         For restart on a previous wavefunction, please use MOREAD

================================================================================
                                       INPUT FILE
================================================================================
NAME = m1_00_Sitagliptin-GitHubGFN2-B97-3C-TZ.inp
|  1> %pal nprocs 16 end
|  2> %MaxCore 6000
|  3> # put your comments here
|  4> ! B97-3C  OPT  FREQ DEFGRID3 NOTRAH
|  5> %scf MaxIter 800 end
|  6> %output
|  7> Print [P_Hirshfeld] 1
|  8> end
|  9> %geom
| 10> MaxIter 3000
| 11>  TolE 1e-6 #TolE 5e-6 Energy change (a.u.)
| 12>  TolRMSG 3e-5 #TolRMSG 1e-4 RMS gradient (a.u.)
| 13>  TolMaxG 1e-4 #TolMaxG 3e-3 Max. element of gradient (a.u.)
| 14>  TolRMSD 2e-3 #TolRMSD 2e-3 RMS displacement (a.u.)
| 15>  TolMaxD 4e-3 #TolMaxD 4e-3 Max. displacement (a.u.)
| 16> end
| 17> * xyz 0 1
| 18>  F        -3.8931110833         2.0071030870         0.7886829174
| 19>  C        -3.2818400635         1.5619820467        -0.3310300555
| 20>  F        -4.0833440446         1.8261610112        -1.3503110797
| 21>  F        -2.1856930602         2.3361710411        -0.4659060631
| 22>  C        -2.9232400666         0.1238730506        -0.2151719982
| 23>  N        -3.3689380540        -0.8592489750        -0.9465059714
| 24>  N        -2.7903720627        -1.9808419605        -0.5206869212
| 25>  C        -1.9978500807        -1.6793499259         0.4715690826
| 26>  N        -2.0464180841        -0.3411569170         0.7235170344
| 27>  C        -1.2719821015         0.3688941175         1.7123540232
| 28>  H        -1.9231131114         1.0342401383         2.2855349878
| 29>  C        -0.5882791190        -0.6554358507         2.6260830720
| 30>  N        -0.0522061054        -1.7422948793         1.8304181203
| 31>  C         1.2242239033        -1.6259628969         1.3631211394
| 32>  O         1.9439408970        -0.7247988839         1.7466391205
| 33>  C         1.6971709200        -2.6892949314         0.3971991856
| 34>  H         1.4118049124        -3.6766339185         0.7612312155
| 35>  H         2.7862399205        -2.6352739335         0.3690322035
| 36>  C         1.1255769459        -2.5081339814        -1.0261698312
| 37>  N         0.9265169554        -3.8241090015        -1.5977667881
| 38>  H         0.4190579714        -3.7696680320        -2.4728517993
| 39>  H         1.8153319582        -4.2809010086        -1.7728507557
| 40>  H         0.1375259455        -2.0415349789        -0.9802088657
| 41>  C         2.0346259624        -1.5899420125        -1.8810558471
| 42>  C         2.2375939519        -0.2499779901        -1.2431698910
| 43>  C         3.4700279430         0.1394530269        -0.7374918823
| 44>  C         3.6310509327         1.3650940485        -0.1189389227
| 45>  C         2.5587459313         2.2399650538        -0.0017739734
| 46>  C         1.3206219400         1.8849910368        -0.5052849833
| 47>  C         1.1850379500         0.6487830156        -1.1063489420
| 48>  F        -0.0410420419         0.3045050002        -1.5655719521
| 49>  H         0.4842029395         2.5631050398        -0.4383030226
| 50>  F         2.7089719215         3.4323370744         0.5897929872
| 51>  F         4.8367009242         1.7082720642         0.3536240869
| 52>  H         4.3243789437        -0.5144639767        -0.8105028436
| 53>  H         3.0008819646        -2.0762030189        -2.0297588123
| 54>  H         1.5568089802        -1.4594430467        -2.8562048605
| 55>  C        -1.1009950959        -2.5657968985         1.2666551304
| 56>  H        -0.7175550851        -3.3647799211         0.6351191657
| 57>  H        -1.6710021111        -3.0252998689         2.0854381363
| 58>  H         0.2361678718        -0.1780118325         3.1568810701
| 59>  H        -1.3006971324        -1.0683708246         3.3449150737
| 60>  H        -0.5121620917         0.9711400988         1.2030560158
| 61> *
| 62> 
| 63> 
| 64> 
| 65> 
| 66>                          ****END OF INPUT****
================================================================================

                       *****************************
                       * Geometry Optimization Run *
                       *****************************

Geometry optimization settings:
Update method            Update   .... BFGS
Choice of coordinates    CoordSys .... (2022) Redundant Internals
Initial Hessian          InHess   .... Almloef's Model
Max. no of cycles        MaxIter  .... 3000

Convergence Tolerances:
Energy Change            TolE     ....  1.0000e-06 Eh
Max. Gradient            TolMAXG  ....  1.0000e-04 Eh/bohr
RMS Gradient             TolRMSG  ....  3.0000e-05 Eh/bohr
Max. Displacement        TolMAXD  ....  4.0000e-03 bohr
RMS Displacement         TolRMSD  ....  2.0000e-03 bohr
Strict Convergence                .... False

------------------------------------------------------------------------------
                        ORCA OPTIMIZATION COORDINATE SETUP
------------------------------------------------------------------------------

The optimization will be done in redundant internal coordinates (2022)
Making redundant internal coordinates   ...  (2022 redundants) done
Evaluating the initial hessian          ...  (Almloef) done
Evaluating the coordinates              ...  done
Calculating the B-matrix                .... done
Calculating the G-matrix                .... done
Diagonalizing the G-matrix              .... done
Small eigenvalue found = 1.946e-03
Small eigenvalue found = 4.851e-03
Small eigenvalue found = 9.844e-03
Small eigenvalue found = 1.247e-02
Small eigenvalue found = 2.706e-02
Small eigenvalue found = 2.981e-02
The first mode is                       ....  102
The number of degrees of freedom        ....  123

    -----------------------------------------------------------------
                    Redundant Internal Coordinates


    -----------------------------------------------------------------
         Definition                    Initial Value    Approx d2E/dq
    -----------------------------------------------------------------
      1. B(C   1,F   0)                  1.3511         0.599774   
      2. B(F   2,C   1)                  1.3233         0.664318   
      3. B(F   3,C   1)                  1.3487         0.605055   
      4. B(C   4,C   1)                  1.4867         0.438041   
      5. B(N   5,C   4)                  1.3039         0.767931   
      6. B(N   6,N   5)                  1.3319         0.620388   
      7. B(C   7,N   6)                  1.3052         0.764118   
      8. B(N   8,C   7)                  1.3626         0.618925   
      9. B(N   8,C   4)                  1.3661         0.610969   
     10. B(C   9,N   8)                  1.4428         0.460902   
     11. B(H  10,C   9)                  1.0932         0.355828   
     12. B(C  11,C   9)                  1.5335         0.368811   
     13. B(N  12,C  11)                  1.4497         0.449344   
     14. B(C  13,N  12)                  1.3642         0.615121   
     15. B(O  14,C  13)                  1.2154         1.062804   
     16. B(C  15,C  13)                  1.5124         0.398524   
     17. B(H  16,C  15)                  1.0903         0.359681   
     18. B(H  17,C  15)                  1.0908         0.359081   
     19. B(C  18,C  15)                  1.5445         0.354180   
     20. B(N  19,C  18)                  1.4485         0.451388   
     21. B(H  20,N  19)                  1.0130         0.427901   
     22. B(H  21,N  19)                  1.0145         0.425540   
     23. B(H  22,C  18)                  1.0937         0.355303   
     24. B(C  23,C  18)                  1.5493         0.348027   
     25. B(C  24,C  23)                  1.4979         0.420385   
     26. B(C  25,C  24)                  1.3879         0.629640   
     27. B(C  26,C  25)                  1.3823         0.642740   
     28. B(C  27,C  26)                  1.3889         0.627391   
     29. B(C  28,C  27)                  1.3829         0.641249   
     30. B(C  29,C  28)                  1.3813         0.645190   
     31. B(C  29,C  24)                  1.3908         0.622929   
     32. B(F  30,C  29)                  1.3538         0.593983   
     33. B(H  31,C  28)                  1.0789         0.375153   
     34. B(F  32,C  27)                  1.3395         0.625936   
     35. B(F  33,C  26)                  1.3397         0.625586   
     36. B(H  34,C  25)                  1.0784         0.375836   
     37. B(H  35,C  23)                  1.0919         0.357615   
     38. B(H  36,C  23)                  1.0937         0.355194   
     39. B(C  37,N  12)                  1.4477         0.452647   
     40. B(C  37,C   7)                  1.4907         0.431537   
     41. B(H  38,C  37)                  1.0882         0.362453   
     42. B(H  39,C  37)                  1.0984         0.349173   
     43. B(H  40,C  11)                  1.0906         0.359316   
     44. B(H  41,C  11)                  1.0931         0.356078   
     45. B(H  42,H  31)                  2.4942         0.000396   
     46. B(H  42,C   9)                  1.0952         0.353317   
     47. A(F   2,C   1,C   4)          113.5307         0.408536   
     48. A(F   0,C   1,F   2)          107.3699         0.427367   
     49. A(F   2,C   1,F   3)          107.4956         0.428039   
     50. A(F   0,C   1,C   4)          111.2986         0.401228   
     51. A(F   0,C   1,F   3)          105.1565         0.420286   
     52. A(F   3,C   1,C   4)          111.5318         0.401849   
     53. A(N   5,C   4,N   8)          110.3740         0.444072   
     54. A(C   1,C   4,N   5)          127.1010         0.421046   
     55. A(C   1,C   4,N   8)          122.5245         0.404299   
     56. A(C   4,N   5,N   6)          107.8867         0.442313   
     57. A(N   5,N   6,C   7)          108.1973         0.441916   
     58. A(N   6,C   7,C  37)          129.3026         0.419551   
     59. A(N   6,C   7,N   8)          110.2299         0.444713   
     60. A(N   8,C   7,C  37)          120.4524         0.404155   
     61. A(C   4,N   8,C   7)          103.3054         0.427153   
     62. A(C   4,N   8,C   9)          130.3847         0.405326   
     63. A(C   7,N   8,C   9)          126.2221         0.406254   
     64. A(N   8,C   9,H  10)          109.8248         0.333087   
     65. A(N   8,C   9,C  11)          108.5993         0.373516   
     66. A(H  10,C   9,H  42)          108.8056         0.289430   
     67. A(N   8,C   9,H  42)          108.9234         0.332696   
     68. A(H  10,C   9,C  11)          111.0799         0.323003   
     69. A(C  11,C   9,H  42)          109.5781         0.322629   
     70. A(C   9,C  11,N  12)          109.7926         0.371885   
     71. A(N  12,C  11,H  40)          108.4078         0.332224   
     72. A(C   9,C  11,H  41)          110.7082         0.323041   
     73. A(N  12,C  11,H  41)          108.5855         0.331726   
     74. A(H  40,C  11,H  41)          109.7560         0.290228   
     75. A(C   9,C  11,H  40)          109.5501         0.323521   
     76. A(C  11,N  12,C  13)          118.0367         0.403995   
     77. A(C  13,N  12,C  37)          126.3645         0.404518   
     78. A(C  11,N  12,C  37)          111.8568         0.382870   
     79. A(O  14,C  13,C  15)          122.5242         0.438823   
     80. A(N  12,C  13,C  15)          116.8331         0.398097   
     81. A(N  12,C  13,O  14)          120.6099         0.471759   
     82. A(H  17,C  15,C  18)          109.8706         0.321347   
     83. A(H  16,C  15,C  18)          108.4843         0.321435   
     84. A(C  13,C  15,C  18)          112.9781         0.364056   
     85. A(H  16,C  15,H  17)          108.3481         0.290657   
     86. A(C  13,C  15,H  17)          107.0914         0.327634   
     87. A(C  13,C  15,H  16)          109.9737         0.327724   
     88. A(C  15,C  18,N  19)          107.9363         0.369593   
     89. A(H  22,C  18,C  23)          107.4838         0.319874   
     90. A(N  19,C  18,C  23)          113.6610         0.368482   
     91. A(C  15,C  18,C  23)          111.1544         0.355750   
     92. A(N  19,C  18,H  22)          106.2625         0.331856   
     93. A(C  15,C  18,H  22)          110.2221         0.320792   
     94. A(C  18,N  19,H  20)          111.1550         0.339342   
     95. A(H  20,N  19,H  21)          108.2987         0.301910   
     96. A(C  18,N  19,H  21)          110.9011         0.339029   
     97. A(H  35,C  23,H  36)          108.5611         0.289899   
     98. A(C  24,C  23,H  36)          109.3994         0.329942   
     99. A(C  18,C  23,H  36)          107.8392         0.319858   
    100. A(C  24,C  23,H  35)          109.6625         0.330313   
    101. A(C  18,C  23,H  35)          109.2966         0.320213   
    102. A(C  18,C  23,C  24)          112.0057         0.366299   
    103. A(C  25,C  24,C  29)          117.0557         0.435643   
    104. A(C  23,C  24,C  29)          121.1604         0.405353   
    105. A(C  23,C  24,C  25)          121.7693         0.406122   
    106. A(C  26,C  25,H  34)          118.4040         0.357658   
    107. A(C  24,C  25,H  34)          120.5777         0.356408   
    108. A(C  24,C  25,C  26)          121.0157         0.438108   
    109. A(C  27,C  26,F  33)          120.2462         0.430923   
    110. A(C  25,C  26,F  33)          119.3291         0.432799   
    111. A(C  25,C  26,C  27)          120.4203         0.437825   
    112. A(C  28,C  27,F  32)          119.3203         0.432661   
    113. A(C  26,C  27,F  32)          120.7566         0.430966   
    114. A(C  26,C  27,C  28)          119.9223         0.437642   
    115. A(C  29,C  28,H  31)          120.8946         0.357778   
    116. A(C  27,C  28,H  31)          120.6748         0.357406   
    117. A(C  27,C  28,C  29)          118.4276         0.439856   
    118. A(C  28,C  29,F  30)          117.6533         0.429081   
    119. A(C  24,C  29,F  30)          119.1896         0.426389   
    120. A(C  24,C  29,C  28)          123.1528         0.437562   
    121. A(H  38,C  37,H  39)          107.9573         0.289732   
    122. A(N  12,C  37,H  39)          108.8822         0.331054   
    123. A(C   7,C  37,H  39)          109.5199         0.330438   
    124. A(N  12,C  37,H  38)          112.8527         0.333107   
    125. A(C   7,C  37,H  38)          109.8187         0.332486   
    126. A(C   7,C  37,N  12)          107.7752         0.382609   
    127. D(N   8,C   4,C   1,F   2)    176.1750         0.014161   
    128. D(N   8,C   4,C   1,F   0)    -62.5432         0.014161   
    129. D(N   5,C   4,C   1,F   2)     -4.0979         0.014161   
    130. D(N   5,C   4,C   1,F   0)    117.1839         0.014161   
    131. D(N   5,C   4,C   1,F   3)   -125.7193         0.014161   
    132. D(N   6,N   5,C   4,C   1)    179.5580         0.045023   
    133. D(N   6,N   5,C   4,N   8)     -0.6874         0.045023   
    134. D(C   7,N   6,N   5,C   4)      0.2298         0.029392   
    135. D(N   8,C   7,N   6,N   5)      0.3135         0.044527   
    136. D(C  37,C   7,N   6,N   5)   -178.2530         0.044527   
    137. D(C   9,N   8,C   4,C   1)     -2.6986         0.030159   
    138. D(C   9,N   8,C   4,N   5)    177.5336         0.030159   
    139. D(C   9,N   8,C   7,N   6)   -177.5715         0.031011   
    140. D(C   4,N   8,C   7,N   6)     -0.6939         0.031011   
    141. D(C   7,N   8,C   4,C   1)   -179.3914         0.030159   
    142. D(C   7,N   8,C   4,N   5)      0.8408         0.030159   
    143. D(C   9,N   8,C   7,C  37)      1.1418         0.031011   
    144. D(C   4,N   8,C   7,C  37)    178.0193         0.031011   
    145. D(C  11,C   9,N   8,C   7)    -11.1336         0.018135   
    146. D(H  42,C   9,N   8,C   4)    -67.8599         0.018135   
    147. D(C  11,C   9,N   8,C   4)    172.8568         0.018135   
    148. D(H  10,C   9,N   8,C   7)   -132.7828         0.018135   
    149. D(H  10,C   9,N   8,C   4)     51.2076         0.018135   
    150. D(H  40,C  11,C   9,H  42)     42.8429         0.010878   
    151. D(H  40,C  11,C   9,H  10)    -77.4068         0.010878   
    152. D(N  12,C  11,C   9,H  42)    -76.0994         0.010878   
    153. D(H  40,C  11,C   9,N   8)    161.7150         0.010878   
    154. D(N  12,C  11,C   9,H  10)    163.6509         0.010878   
    155. D(N  12,C  11,C   9,N   8)     42.7727         0.010878   
    156. D(C  13,N  12,C  11,H  40)    -29.8544         0.017224   
    157. D(C  13,N  12,C  11,C   9)     89.7882         0.017224   
    158. D(C  37,N  12,C  11,H  40)    170.5279         0.017224   
    159. D(C  37,N  12,C  11,C   9)    -69.8295         0.017224   
    160. D(C  13,N  12,C  11,H  41)   -149.0473         0.017224   
    161. D(C  15,C  13,N  12,C  37)    -16.2843         0.030601   
    162. D(C  15,C  13,N  12,C  11)   -172.6174         0.030601   
    163. D(O  14,C  13,N  12,C  37)    165.7457         0.030601   
    164. D(O  14,C  13,N  12,C  11)      9.4126         0.030601   
    165. D(C  18,C  15,C  13,N  12)     76.1393         0.011791   
    166. D(H  17,C  15,C  13,O  14)     15.1732         0.011791   
    167. D(H  17,C  15,C  13,N  12)   -162.7546         0.011791   
    168. D(H  16,C  15,C  13,O  14)    132.6999         0.011791   
    169. D(H  16,C  15,C  13,N  12)    -45.2279         0.011791   
    170. D(H  22,C  18,C  15,H  17)   -150.0310         0.010088   
    171. D(H  22,C  18,C  15,H  16)     91.6916         0.010088   
    172. D(H  22,C  18,C  15,C  13)    -30.5139         0.010088   
    173. D(N  19,C  18,C  15,H  17)     94.3163         0.010088   
    174. D(N  19,C  18,C  15,H  16)    -23.9611         0.010088   
    175. D(N  19,C  18,C  15,C  13)   -146.1667         0.010088   
    176. D(H  21,N  19,C  18,H  22)    173.4247         0.017383   
    177. D(H  21,N  19,C  18,C  15)    -68.3537         0.017383   
    178. D(H  20,N  19,C  18,C  23)    -65.1176         0.017383   
    179. D(H  20,N  19,C  18,H  22)     52.8840         0.017383   
    180. D(H  20,N  19,C  18,C  15)    171.1056         0.017383   
    181. D(H  35,C  23,C  18,H  22)   -174.4115         0.009768   
    182. D(H  35,C  23,C  18,N  19)    -57.1170         0.009768   
    183. D(H  35,C  23,C  18,C  15)     64.8930         0.009768   
    184. D(C  24,C  23,C  18,H  22)     63.8515         0.009768   
    185. D(C  24,C  23,C  18,N  19)   -178.8541         0.009768   
    186. D(C  24,C  23,C  18,C  15)    -56.8441         0.009768   
    187. D(C  25,C  24,C  23,H  36)   -128.9783         0.013067   
    188. D(C  25,C  24,C  23,H  35)    -10.0185         0.013067   
    189. D(C  25,C  24,C  23,C  18)    111.5086         0.013067   
    190. D(C  29,C  24,C  23,H  35)    171.4131         0.013067   
    191. D(C  29,C  24,C  23,C  18)    -67.0599         0.013067   
    192. D(H  34,C  25,C  24,C  29)    179.8295         0.027486   
    193. D(H  34,C  25,C  24,C  23)      1.2050         0.027486   
    194. D(C  26,C  25,C  24,C  29)      0.4239         0.027486   
    195. D(C  26,C  25,C  24,C  23)   -178.2006         0.027486   
    196. D(F  33,C  26,C  25,H  34)      0.7698         0.028719   
    197. D(F  33,C  26,C  25,C  24)   -179.8120         0.028719   
    198. D(C  27,C  26,C  25,H  34)   -179.9936         0.028719   
    199. D(C  27,C  26,C  25,C  24)     -0.5754         0.028719   
    200. D(F  32,C  27,C  26,F  33)     -0.4012         0.027277   
    201. D(F  32,C  27,C  26,C  25)   -179.6307         0.027277   
    202. D(C  28,C  27,C  26,F  33)    179.2782         0.027277   
    203. D(C  28,C  27,C  26,C  25)      0.0487         0.027277   
    204. D(H  31,C  28,C  27,F  32)      0.9001         0.028577   
    205. D(H  31,C  28,C  27,C  26)   -178.7839         0.028577   
    206. D(C  29,C  28,C  27,F  32)   -179.7208         0.028577   
    207. D(C  29,C  28,C  27,C  26)      0.5952         0.028577   
    208. D(F  30,C  29,C  28,H  31)     -2.1442         0.028954   
    209. D(F  30,C  29,C  28,C  27)    178.4781         0.028954   
    210. D(C  24,C  29,C  28,H  31)    178.6184         0.028954   
    211. D(C  24,C  29,C  28,C  27)     -0.7592         0.028954   
    212. D(F  30,C  29,C  24,C  25)   -178.9762         0.026867   
    213. D(F  30,C  29,C  24,C  23)     -0.3428         0.026867   
    214. D(C  28,C  29,C  24,C  25)      0.2500         0.026867   
    215. D(C  28,C  29,C  24,C  23)    178.8834         0.026867   
    216. D(H  39,C  37,N  12,C  11)    -62.3252         0.017481   
    217. D(H  38,C  37,N  12,C  13)     20.2662         0.017481   
    218. D(H  38,C  37,N  12,C  11)    177.8239         0.017481   
    219. D(C   7,C  37,N  12,C  13)   -101.1654         0.017481   
    220. D(C   7,C  37,N  12,C  11)     56.3924         0.017481   
    221. D(H  39,C  37,C   7,N   6)    -85.5428         0.013751   
    222. D(H  38,C  37,C   7,N   8)   -145.5928         0.013751   
    223. D(H  38,C  37,C   7,N   6)     32.8469         0.013751   
    224. D(N  12,C  37,C   7,N   8)    -22.2912         0.013751   
    225. D(N  12,C  37,C   7,N   6)    156.1485         0.013751   
    -----------------------------------------------------------------

Number of atoms                         .... 43
Number of degrees of freedom            .... 225


         *************************************************************
         *                GEOMETRY OPTIMIZATION CYCLE   1            *
         *************************************************************
---------------------------------
CARTESIAN COORDINATES (ANGSTROEM)
---------------------------------
  F     -3.893111    2.007103    0.788683
  C     -3.281840    1.561982   -0.331030
  F     -4.083344    1.826161   -1.350311
  F     -2.185693    2.336171   -0.465906
  C     -2.923240    0.123873   -0.215172
  N     -3.368938   -0.859249   -0.946506
  N     -2.790372   -1.980842   -0.520687
  C     -1.997850   -1.679350    0.471569
  N     -2.046418   -0.341157    0.723517
  C     -1.271982    0.368894    1.712354
  H     -1.923113    1.034240    2.285535
  C     -0.588279   -0.655436    2.626083
  N     -0.052206   -1.742295    1.830418
  C      1.224224   -1.625963    1.363121
  O      1.943941   -0.724799    1.746639
  C      1.697171   -2.689295    0.397199
  H      1.411805   -3.676634    0.761231
  H      2.786240   -2.635274    0.369032
  C      1.125577   -2.508134   -1.026170
  N      0.926517   -3.824109   -1.597767
  H      0.419058   -3.769668   -2.472852
  H      1.815332   -4.280901   -1.772851
  H      0.137526   -2.041535   -0.980209
  C      2.034626   -1.589942   -1.881056
  C      2.237594   -0.249978   -1.243170
  C      3.470028    0.139453   -0.737492
  C      3.631051    1.365094   -0.118939
  C      2.558746    2.239965   -0.001774
  C      1.320622    1.884991   -0.505285
  C      1.185038    0.648783   -1.106349
  F     -0.041042    0.304505   -1.565572
  H      0.484203    2.563105   -0.438303
  F      2.708972    3.432337    0.589793
  F      4.836701    1.708272    0.353624
  H      4.324379   -0.514464   -0.810503
  H      3.000882   -2.076203   -2.029759
  H      1.556809   -1.459443   -2.856205
  C     -1.100995   -2.565797    1.266655
  H     -0.717555   -3.364780    0.635119
  H     -1.671002   -3.025300    2.085438
  H      0.236168   -0.178012    3.156881
  H     -1.300697   -1.068371    3.344915
  H     -0.512162    0.971140    1.203056

----------------------------
CARTESIAN COORDINATES (A.U.)
----------------------------
  NO LB      ZA    FRAG     MASS         X           Y           Z
   0 F     9.0000    0    18.998   -7.356914    3.792875    1.490395
   1 C     6.0000    0    12.011   -6.201779    2.951718   -0.625556
   2 F     9.0000    0    18.998   -7.716402    3.450944   -2.551718
   3 F     9.0000    0    18.998   -4.130361    4.414723   -0.880435
   4 C     6.0000    0    12.011   -5.524123    0.234086   -0.406616
   5 N     7.0000    0    14.007   -6.366370   -1.623745   -1.788637
   6 N     7.0000    0    14.007   -5.273039   -3.743249   -0.983956
   7 C     6.0000    0    12.011   -3.775390   -3.173511    0.891136
   8 N     7.0000    0    14.007   -3.867170   -0.644693    1.367249
   9 C     6.0000    0    12.011   -2.403698    0.697109    3.235880
  10 H     1.0000    0     1.008   -3.634157    1.954431    4.319035
  11 C     6.0000    0    12.011   -1.111686   -1.238594    4.962578
  12 N     7.0000    0    14.007   -0.098655   -3.292460    3.458989
  13 C     6.0000    0    12.011    2.313448   -3.072625    2.575926
  14 O     8.0000    0    15.999    3.673516   -1.369671    3.300670
  15 C     6.0000    0    12.011    3.207188   -5.082031    0.750598
  16 H     1.0000    0     1.008    2.667925   -6.947831    1.438519
  17 H     1.0000    0     1.008    5.265230   -4.979946    0.697370
  18 C     6.0000    0    12.011    2.127032   -4.739686   -1.939180
  19 N     7.0000    0    14.007    1.750863   -7.226519   -3.019342
  20 H     1.0000    0     1.008    0.791905   -7.123640   -4.673013
  21 H     1.0000    0     1.008    3.430480   -8.089731   -3.350202
  22 H     1.0000    0     1.008    0.259886   -3.857942   -1.852326
  23 C     6.0000    0    12.011    3.844886   -3.004555   -3.554680
  24 C     6.0000    0    12.011    4.228440   -0.472390   -2.349251
  25 C     6.0000    0    12.011    6.557402    0.263528   -1.393658
  26 C     6.0000    0    12.011    6.861692    2.579654   -0.224762
  27 C     6.0000    0    12.011    4.835329    4.232921   -0.003352
  28 C     6.0000    0    12.011    2.495614    3.562117   -0.954850
  29 C     6.0000    0    12.011    2.239397    1.226022   -2.090697
  30 F     9.0000    0    18.998   -0.077558    0.575431   -2.958502
  31 H     1.0000    0     1.008    0.915011    4.843567   -0.828273
  32 F     9.0000    0    18.998    5.119215    6.486177    1.114547
  33 F     9.0000    0    18.998    9.140040    3.228166    0.668253
  34 H     1.0000    0     1.008    8.171892   -0.972196   -1.531628
  35 H     1.0000    0     1.008    5.670845   -3.923455   -3.835688
  36 H     1.0000    0     1.008    2.941943   -2.757948   -5.397445
  37 C     6.0000    0    12.011   -2.080579   -4.848653    2.393631
  38 H     1.0000    0     1.008   -1.355983   -6.358513    1.200201
  39 H     1.0000    0     1.008   -3.157736   -5.716988    3.940907
  40 H     1.0000    0     1.008    0.446293   -0.336394    5.965641
  41 H     1.0000    0     1.008   -2.457961   -2.018928    6.320973
  42 H     1.0000    0     1.008   -0.967846    1.835189    2.273446

--------------------------------
INTERNAL COORDINATES (ANGSTROEM)
--------------------------------
 F      0   0   0     0.000000000000     0.00000000     0.00000000
 C      1   0   0     1.351126249410     0.00000000     0.00000000
 F      2   1   0     1.323303806122   107.36992214     0.00000000
 F      2   1   3     1.348739555778   105.15652827   114.27274570
 C      2   1   3     1.486665574997   111.29858227   235.18486048
 N      5   2   1     1.303850065594   127.10098826   117.18390303
 N      6   5   2     1.331927661296   107.88665884   179.55803098
 C      7   6   5     1.305205162401   108.19726839     0.22979236
 N      8   7   6     1.362570053406   110.22987948     0.31347716
 C      9   8   7     1.442817435838   126.22213392   182.42851594
 H     10   9   8     1.093248982450   109.82477489   227.21717788
 C     10   9   8     1.533493536554   108.59925988   348.86635008
 N     12  10   9     1.449730850649   109.79256681    42.77270592
 C     13  12  10     1.364248205275   118.03667511    89.78818312
 O     14  13  12     1.215390954045   120.60990771     9.41262442
 C     14  13  12     1.512401771036   116.83313483   187.38256896
 H     16  14  13     1.090317088069   109.97372290   314.77209904
 H     16  14  13     1.090771715321   107.09138263   197.24536028
 C     16  14  13     1.544512324010   112.97808720    76.13925478
 N     19  16  14     1.448495155146   107.93627322   213.83333462
 H     20  19  16     1.013041073417   111.15499591   171.10561373
 H     20  19  16     1.014546914964   110.90111386   291.64634560
 H     19  16  14     1.093650684120   110.22209371   329.48606824
 C     19  16  14     1.549282642494   111.15443219    88.55419441
 C     24  19  16     1.497864506248   112.00570967   303.15588816
 C     25  24  19     1.387897801678   121.76931894   111.50855786
 C     26  25  24     1.382292328298   121.01571384   181.79937968
 C     27  26  25     1.388871814563   120.42033229   359.42463353
 C     28  27  26     1.382924765730   119.92230836     0.04865779
 C     29  28  27     1.381257098614   118.42757364     0.59521602
 F     30  29  28     1.353767066903   117.65329525   178.47813312
 H     29  28  27     1.078852134688   120.67481506   181.21613776
 F     28  27  26     1.339503770997   120.75664340   180.36926068
 F     27  26  25     1.339656243409   119.32905954   180.18804171
 H     26  25  24     1.078356935557   120.57772764     1.20498297
 H     24  19  16     1.091885067208   109.29663760    64.89297271
 H     24  19  16     1.093734267036   107.83919371   182.73113892
 C     13  12  10     1.447737072469   111.85681398   290.17046100
 H     38  13  12     1.088226900511   112.85268690   177.82394016
 H     38  13  12     1.098388177255   108.88221669   297.67483744
 H     12  10   9     1.090592980254   109.55010147   161.71499640
 H     12  10   9     1.093057256119   110.70817904   282.89369229
 H     10   9   8     1.095176300705   108.92337818   108.14963949

---------------------------
INTERNAL COORDINATES (A.U.)
---------------------------
 F      0   0   0     0.000000000000     0.00000000     0.00000000
 C      1   0   0     2.553258583738     0.00000000     0.00000000
 F      2   1   0     2.500681785547   107.36992214     0.00000000
 F      2   1   3     2.548748386407   105.15652827   114.27274570
 C      2   1   3     2.809390789473   111.29858227   235.18486048
 N      5   2   1     2.463919543667   127.10098826   117.18390303
 N      6   5   2     2.516978510043   107.88665884   179.55803098
 C      7   6   5     2.466480305518   108.19726839     0.22979236
 N      8   7   6     2.574884239220   110.22987948     0.31347716
 C      9   8   7     2.726529814981   126.22213392   182.42851594
 H     10   9   8     2.065941173018   109.82477489   227.21717788
 C     10   9   8     2.897882812225   108.59925988   348.86635008
 N     12  10   9     2.739594275623   109.79256681    42.77270592
 C     13  12  10     2.578055486664   118.03667511    89.78818312
 O     14  13  12     2.296756048790   120.60990771     9.41262442
 C     14  13  12     2.858025151715   116.83313483   187.38256896
 H     16  14  13     2.060400695584   109.97372290   314.77209904
 H     16  14  13     2.061259816585   107.09138263   197.24536028
 C     16  14  13     2.918705302845   112.97808720    76.13925478
 N     19  16  14     2.737259149538   107.93627322   213.83333462
 H     20  19  16     1.914370191171   111.15499591   171.10561373
 H     20  19  16     1.917215819297   110.90111386   291.64634560
 H     19  16  14     2.066700279162   110.22209371   329.48606824
 C     19  16  14     2.927719898352   111.15443219    88.55419441
 C     24  19  16     2.830553702530   112.00570967   303.15588816
 C     25  24  19     2.622746747043   121.76931894   111.50855786
 C     26  25  24     2.612153937503   121.01571384   181.79937968
 C     27  26  25     2.624587364646   120.42033229   359.42463353
 C     28  27  26     2.613349071046   119.92230836     0.04865779
 C     29  28  27     2.610197636915   118.42757364     0.59521602
 F     30  29  28     2.558249005568   117.65329525   178.47813312
 H     29  28  27     2.038735073557   120.67481506   181.21613776
 F     28  27  26     2.531295282539   120.75664340   180.36926068
 F     27  26  25     2.531583413642   119.32905954   180.18804171
 H     26  25  24     2.037799282818   120.57772764     1.20498297
 H     24  19  16     2.063363746741   109.29663760    64.89297271
 H     24  19  16     2.066858227983   107.83919371   182.73113892
 C     13  12  10     2.735826580892   111.85681398   290.17046100
 H     38  13  12     2.056450813531   112.85268690   177.82394016
 H     38  13  12     2.075652843750   108.88221669   297.67483744
 H     12  10   9     2.060922056258   109.55010147   161.71499640
 H     12  10   9     2.065578862761   110.70817904   282.89369229
 H     10   9   8     2.069583276694   108.92337818   108.14963949

---------------------
BASIS SET INFORMATION
---------------------
There are 5 groups of distinct atoms

 Group   1 Type F   : 11s6p1d contracted to 5s3p1d pattern {62111/411/1}
 Group   2 Type C   : 11s6p1d contracted to 5s3p1d pattern {62111/411/1}
 Group   3 Type N   : 11s6p1d contracted to 5s3p1d pattern {62111/411/1}
 Group   4 Type H   : 5s contracted to 3s pattern {311}
 Group   5 Type O   : 11s6p2d contracted to 5s3p2d pattern {62111/411/11}

Atom   0F    basis set group =>   1
Atom   1C    basis set group =>   2
Atom   2F    basis set group =>   1
Atom   3F    basis set group =>   1
Atom   4C    basis set group =>   2
Atom   5N    basis set group =>   3
Atom   6N    basis set group =>   3
Atom   7C    basis set group =>   2
Atom   8N    basis set group =>   3
Atom   9C    basis set group =>   2
Atom  10H    basis set group =>   4
Atom  11C    basis set group =>   2
Atom  12N    basis set group =>   3
Atom  13C    basis set group =>   2
Atom  14O    basis set group =>   5
Atom  15C    basis set group =>   2
Atom  16H    basis set group =>   4
Atom  17H    basis set group =>   4
Atom  18C    basis set group =>   2
Atom  19N    basis set group =>   3
Atom  20H    basis set group =>   4
Atom  21H    basis set group =>   4
Atom  22H    basis set group =>   4
Atom  23C    basis set group =>   2
Atom  24C    basis set group =>   2
Atom  25C    basis set group =>   2
Atom  26C    basis set group =>   2
Atom  27C    basis set group =>   2
Atom  28C    basis set group =>   2
Atom  29C    basis set group =>   2
Atom  30F    basis set group =>   1
Atom  31H    basis set group =>   4
Atom  32F    basis set group =>   1
Atom  33F    basis set group =>   1
Atom  34H    basis set group =>   4
Atom  35H    basis set group =>   4
Atom  36H    basis set group =>   4
Atom  37C    basis set group =>   2
Atom  38H    basis set group =>   4
Atom  39H    basis set group =>   4
Atom  40H    basis set group =>   4
Atom  41H    basis set group =>   4
Atom  42H    basis set group =>   4
---------------------------------
AUXILIARY/J BASIS SET INFORMATION
---------------------------------
There are 5 groups of distinct atoms

 Group   1 Type F   : 8s3p4d contracted to 6s3p4d pattern {311111/111/1111}
 Group   2 Type C   : 8s3p3d contracted to 6s3p3d pattern {311111/111/111}
 Group   3 Type N   : 8s3p3d contracted to 6s3p3d pattern {311111/111/111}
 Group   4 Type H   : 5s2p contracted to 3s1p pattern {311/2}
 Group   5 Type O   : 8s3p3d contracted to 6s3p3d pattern {311111/111/111}

Atom   0F    basis set group =>   1
Atom   1C    basis set group =>   2
Atom   2F    basis set group =>   1
Atom   3F    basis set group =>   1
Atom   4C    basis set group =>   2
Atom   5N    basis set group =>   3
Atom   6N    basis set group =>   3
Atom   7C    basis set group =>   2
Atom   8N    basis set group =>   3
Atom   9C    basis set group =>   2
Atom  10H    basis set group =>   4
Atom  11C    basis set group =>   2
Atom  12N    basis set group =>   3
Atom  13C    basis set group =>   2
Atom  14O    basis set group =>   5
Atom  15C    basis set group =>   2
Atom  16H    basis set group =>   4
Atom  17H    basis set group =>   4
Atom  18C    basis set group =>   2
Atom  19N    basis set group =>   3
Atom  20H    basis set group =>   4
Atom  21H    basis set group =>   4
Atom  22H    basis set group =>   4
Atom  23C    basis set group =>   2
Atom  24C    basis set group =>   2
Atom  25C    basis set group =>   2
Atom  26C    basis set group =>   2
Atom  27C    basis set group =>   2
Atom  28C    basis set group =>   2
Atom  29C    basis set group =>   2
Atom  30F    basis set group =>   1
Atom  31H    basis set group =>   4
Atom  32F    basis set group =>   1
Atom  33F    basis set group =>   1
Atom  34H    basis set group =>   4
Atom  35H    basis set group =>   4
Atom  36H    basis set group =>   4
Atom  37C    basis set group =>   2
Atom  38H    basis set group =>   4
Atom  39H    basis set group =>   4
Atom  40H    basis set group =>   4
Atom  41H    basis set group =>   4
Atom  42H    basis set group =>   4


           ************************************************************
           *        Program running with 16 parallel MPI-processes    *
           *              working on a common directory               *
           ************************************************************
------------------------------------------------------------------------------
                             ORCA STARTUP CALCULATIONS
                           -- RI-GTO INTEGRALS CHOSEN --
------------------------------------------------------------------------------
------------------------------------------------------------------------------
                   ___                                                        
                  /   \      - P O W E R E D   B Y -                         
                 /     \                                                     
                 |  |  |   _    _      __       _____    __    __             
                 |  |  |  | |  | |    /  \     |  _  \  |  |  /  |          
                  \  \/   | |  | |   /    \    | | | |  |  | /  /          
                 / \  \   | |__| |  /  /\  \   | |_| |  |  |/  /          
                |  |  |   |  __  | /  /__\  \  |    /   |      \           
                |  |  |   | |  | | |   __   |  |    \   |  |\   \          
                \     /   | |  | | |  |  |  |  | |\  \  |  | \   \       
                 \___/    |_|  |_| |__|  |__|  |_| \__\ |__|  \__/        
                                                                              
                      - O R C A' S   B I G   F R I E N D -                    
                                      &                                       
                       - I N T E G R A L  F E E D E R -                       
                                                                              
 v1 FN, 2020, v2 2021, v3 2022-2024                                           
------------------------------------------------------------------------------


----------------------
SHARK INTEGRAL PACKAGE
----------------------

Number of atoms                             ...     43
Number of basis functions                   ...    582
Number of shells                            ...    298
Maximum angular momentum                    ...      2
Integral batch strategy                     ... SHARK/LIBINT Hybrid
RI-J (if used) integral strategy            ... SPLIT-RIJ (Revised 2003 algorithm where possible)
Printlevel                                  ...      1
Contraction scheme used                     ... SEGMENTED contraction
Prescreening option                         ... SCHWARTZ
   Thresh                                   ... 2.500e-11
   Tcut                                     ... 2.500e-12
   Tpresel                                  ... 2.500e-12 
Coulomb Range Separation                    ... NOT USED
Exchange Range Separation                   ... NOT USED
Multipole approximations                    ... NOT USED
Finite Nucleus Model                        ... NOT USED
CABS basis                                  ... NOT available
Auxiliary Coulomb fitting basis             ... AVAILABLE
   # of basis functions in Aux-J            ...    960
   # of shells in Aux-J                     ...    402
   Maximum angular momentum in Aux-J        ...      2
Auxiliary J/K fitting basis                 ... NOT available
Auxiliary Correlation fitting basis         ... NOT available
Auxiliary 'external' fitting basis          ... NOT available

Checking pre-screening integrals            ... done (  0.0 sec) Dimension = 298
Check shell pair data                       ... done (  0.0 sec)
Shell pair information
Shell pair cut-off parameter TPreSel        ...   2.5e-12
Total number of shell pairs                 ...     44551
Shell pairs after pre-screening             ...     32404
Total number of primitive shell pairs       ...    169151
Primitive shell pairs kept                  ...     74692
          la=0 lb=0:  11705 shell pairs
          la=1 lb=0:  12039 shell pairs
          la=1 lb=1:   3056 shell pairs
          la=2 lb=0:   3435 shell pairs
          la=2 lb=1:   1881 shell pairs
          la=2 lb=2:    288 shell pairs

Calculating one electron integrals          ... done (  0.0 sec)
Calculating RI/J V-Matrix + Cholesky decomp.... done (  0.0 sec)
Calculating Nuclear repulsion               ... done (  0.0 sec) ENN=   3013.369188546182 Eh

Diagonalization of the overlap matrix:
Smallest eigenvalue                        ... 1.020e-05
Time for diagonalization                   ...    0.032 sec
Threshold for overlap eigenvalues          ... 1.000e-07
Number of eigenvalues below threshold      ... 0
Time for construction of square roots      ...    0.018 sec
Total time needed                          ...    0.054 sec

-------------------
DFT GRID GENERATION
-------------------

General Integration Accuracy     IntAcc      ... 4.959
Radial Grid Type                 RadialGrid  ... OptM3 with GC (2021)
Angular Grid (max. ang.)         AngularGrid ... 6 (Lebedev-590)
Angular grid pruning method      GridPruning ... 4 (adaptive)
Weight generation scheme         WeightScheme... mBecke (2022)
Basis function cutoff            BFCut       ... 1.0000e-11
Integration weight cutoff        WCut        ... 1.0000e-14
Partially contracted basis set               ... off
Rotationally invariant grid construction     ... off
Angular grids for H and He will be reduced by one unit
Diffuse basis detected: some atoms will have their outermost
                        angular grid increased by 1.

Total number of grid points                  ...   521626
Total number of batches                      ...     8171
Average number of points per batch           ...       63
Average number of grid points per atom       ...    12131
Initializing property integral containers    ... done (  0.0 sec)

SHARK setup successfully completed in   4.2 seconds

Maximum memory used throughout the entire STARTUP-calculation: 128.7 MB


           ************************************************************
           *        Program running with 16 parallel MPI-processes    *
           *              working on a common directory               *
           ************************************************************
-------------------------------------------------------------------------------
                                 ORCA GUESS
                   Start orbitals & Density for SCF / CASSCF
-------------------------------------------------------------------------------

------------
SCF SETTINGS
------------
Hamiltonian:
 Density Functional     Method          .... DFT(GTOs)
 Exchange Functional    Exchange        .... B973C
 Correlation Functional Correlation     .... B973C
 Gradients option       PostSCFGGA      .... off
 RI-approximation to the Coulomb term is turned on
   Number of AuxJ basis functions       .... 960


General Settings:
 Integral files         IntName         .... m1_00_Sitagliptin-GitHubGFN2-B97-3C-TZ
 Hartree-Fock type      HFTyp           .... RHF
 Total Charge           Charge          ....    0
 Multiplicity           Mult            ....    1
 Number of Electrons    NEL             ....  208
 Basis Dimension        Dim             ....  582
 Nuclear Repulsion      ENuc            ....   3013.3691885462 Eh

Convergence Acceleration:
 AO-DIIS                CNVDIIS         .... on
   Start iteration      DIISMaxIt       ....    12
   Startup error        DIISStart       ....  0.200000
   # of expansion vecs  DIISMaxEq       ....     5
   Bias factor          DIISBfac        ....   1.050
   Max. coefficient     DIISMaxC        ....  10.000
 MO-DIIS                CNVKDIIS        .... off
 Trust-Rad. Augm. Hess. CNVTRAH         .... off
 SOSCF                  CNVSOSCF        .... on
   Start iteration      SOSCFMaxIt      ....   150
   Startup grad/error   SOSCFStart      ....  0.003300
   Hessian update       SOSCFHessUp     .... L-BFGS
 Level Shifting         CNVShift        .... on
   Level shift para.    LevelShift      ....    0.2500
   Turn off err/grad.   ShiftErr        ....    0.0010
 Zerner damping         CNVZerner       .... off
 Static damping         CNVDamp         .... on
   Fraction old density DampFac         ....    0.7000
   Max. Damping (<1)    DampMax         ....    0.9800
   Min. Damping (>=0)   DampMin         ....    0.0000
   Turn off err/grad.   DampErr         ....    0.1000

SCF Procedure:
 Maximum # iterations   MaxIter         ....   800
 SCF integral mode      SCFMode         .... Direct
   Integral package                     .... SHARK and LIBINT hybrid scheme
 Reset frequency        DirectResetFreq ....    20
 Integral Threshold     Thresh          ....  2.500e-11 Eh
 Primitive CutOff       TCut            ....  2.500e-12 Eh

Convergence Tolerance:
 Convergence Check Mode ConvCheckMode   .... Total+1el-Energy
 Convergence forced     ConvForced      .... 0
 Energy Change          TolE            ....  1.000e-08 Eh
 1-El. energy change                    ....  1.000e-05 Eh
 Orbital Gradient       TolG            ....  1.000e-05
 Orbital Rotation angle TolX            ....  1.000e-05
 DIIS Error             TolErr          ....  5.000e-07

--------------------------------
INITIAL GUESS: MINIMAL BASIS EHT
--------------------------------
The minimal basis has 155 functions
EHT matrix was diagonalized
Basis set overlap was calculated now projecting the orbitals
Using GuessMode=FMatrix for the initial guess
C*T matrix was formed
Effective Fockian was calculated
Effective Fockian was diagonalized
Initial density was built
                      ------------------
                      INITIAL GUESS DONE
                      ------------------
             **** ENERGY FILE WAS UPDATED (m1_00_Sitagliptin-GitHubGFN2-B97-3C-TZ.en.tmp) ****
Finished Guess after   0.3 sec
Maximum memory used throughout the entire GUESS-calculation: 56.1 MB


           ************************************************************
           *        Program running with 16 parallel MPI-processes    *
           *              working on a common directory               *
           ************************************************************

-------------------------------------------------------------------------------------------
                                      ORCA LEAN-SCF
                              memory conserving SCF solver
-------------------------------------------------------------------------------------------

----------------------------------------D-I-I-S--------------------------------------------
Iteration    Energy (Eh)           Delta-E    RMSDP     MaxDP     DIISErr   Damp  Time(sec)
-------------------------------------------------------------------------------------------
               ***  Starting incremental Fock matrix formation  ***
    1    -1559.8757146497900976     0.00e+00  6.40e-03  3.63e-01  4.78e-01  0.700   1.2
Warning: op=0 Small HOMO/LUMO gap (   0.069) - skipping pre-diagonalization
         Will do a full diagonalization
    2    -1562.1484824378248959    -2.27e+00  3.98e-03  1.58e-01  3.39e-01  0.700   1.2
    3    -1563.2475325395071195    -1.10e+00  2.78e-03  1.72e-01  2.36e-01  0.700   1.1
                               ***Turning on AO-DIIS***
    4    -1564.0225899285778723    -7.75e-01  2.34e-03  1.96e-01  1.64e-01  0.700   1.1
    5    -1564.5682258445103798    -5.46e-01  1.71e-03  1.47e-01  1.15e-01  0.700   1.1
    6    -1564.9515206770602163    -3.83e-01  1.17e-03  9.99e-02  8.04e-02  0.700   1.1
    7    -1565.2217825720235851    -2.70e-01  2.60e-03  2.09e-01  5.64e-02  0.000   1.1
    8    -1565.8477333809551055    -6.26e-01  3.85e-04  2.37e-02  2.44e-02  0.000   1.1
    9    -1565.8521142512681763    -4.38e-03  1.32e-04  6.54e-03  1.01e-02  0.000   1.1
   10    -1565.8523855973862737    -2.71e-04  4.41e-05  2.39e-03  4.88e-03  0.000   1.1
                              *** Initializing SOSCF ***
---------------------------------------S-O-S-C-F--------------------------------------
Iteration    Energy (Eh)           Delta-E    RMSDP     MaxDP     MaxGrad    Time(sec)
--------------------------------------------------------------------------------------
   11    -1565.8525691047361761    -1.84e-04  2.12e-05  1.17e-03  1.02e-03     1.1
               *** Restarting incremental Fock matrix formation ***
   12    -1565.8525759204694623    -6.82e-06  4.80e-05  3.89e-03  1.98e-04     1.2
   13    -1565.8525699606998387     5.96e-06  1.70e-05  1.05e-03  6.10e-04     1.0
   14    -1565.8525769066973226    -6.95e-06  2.32e-05  2.02e-03  6.46e-05     1.0
   15    -1565.8525764674814127     4.39e-07  5.51e-06  4.61e-04  1.17e-04     1.0
   16    -1565.8525770037631446    -5.36e-07  1.14e-05  1.18e-03  9.42e-06     0.9
   17    -1565.8525769875795959     1.62e-08  1.97e-06  1.42e-04  2.80e-05     0.9
   18    -1565.8525770212418138    -3.37e-08  3.75e-06  2.43e-04  4.18e-06     0.9
   19    -1565.8525770128217118     8.42e-09  3.81e-06  3.91e-04  8.55e-06     0.9
                 **** Energy Check signals convergence ****

               *****************************************************
               *                     SUCCESS                       *
               *           SCF CONVERGED AFTER  19 CYCLES          *
               *****************************************************

             **** ENERGY FILE WAS UPDATED (m1_00_Sitagliptin-GitHubGFN2-B97-3C-TZ.en.tmp) ****

----------------
TOTAL SCF ENERGY
----------------

Total Energy       :      -1565.85257701282171 Eh          -42609.01482 eV

Components:
Nuclear Repulsion  :       3013.36918854618216 Eh           81997.94432 eV
Electronic Energy  :      -4579.22176555900296 Eh         -124606.95914 eV
One Electron Energy:      -8148.02558119984496 Eh         -221719.04804 eV
Two Electron Energy:       3568.80381564084155 Eh           97112.08891 eV

Virial components:
Potential Energy   :      -3126.62998061647704 Eh          -85079.92715 eV
Kinetic Energy     :       1560.77740360365533 Eh           42470.91233 eV
Virial Ratio       :          2.00325169585198

DFT components:
N(Alpha)           :      104.000035766706 electrons
N(Beta)            :      104.000035766706 electrons
N(Total)           :      208.000071533413 electrons
E(XC)              :     -197.424187946050 Eh       

---------------
SCF CONVERGENCE
---------------

  Last Energy change         ...   -8.4201e-09  Tolerance :   1.0000e-08
  Last MAX-Density change    ...    3.9115e-04  Tolerance :   1.0000e-07
  Last RMS-Density change    ...    3.8054e-06  Tolerance :   5.0000e-09
  Last DIIS Error            ...    1.0156e-03  Tolerance :   5.0000e-07
  Last Orbital Gradient      ...    8.5511e-06  Tolerance :   1.0000e-05
  Last Orbital Rotation      ...    1.0499e-05  Tolerance :   1.0000e-05


----------------
ORBITAL ENERGIES
----------------

  NO   OCC          E(Eh)            E(eV) 
   0   2.0000     -24.289183      -660.9423 
   1   2.0000     -24.288433      -660.9219 
   2   2.0000     -24.286019      -660.8562 
   3   2.0000     -24.271587      -660.4635 
   4   2.0000     -24.270792      -660.4418 
   5   2.0000     -24.265546      -660.2991 
   6   2.0000     -18.722234      -509.4579 
   7   2.0000     -14.084932      -383.2705 
   8   2.0000     -14.044766      -382.1775 
   9   2.0000     -14.019075      -381.4784 
  10   2.0000     -14.012782      -381.3072 
  11   2.0000     -13.987464      -380.6182 
  12   2.0000     -10.160472      -276.4805 
  13   2.0000     -10.001185      -272.1461 
  14   2.0000      -9.996596      -272.0212 
  15   2.0000      -9.991919      -271.8939 
  16   2.0000      -9.989759      -271.8352 
  17   2.0000      -9.978603      -271.5316 
  18   2.0000      -9.975462      -271.4461 
  19   2.0000      -9.969303      -271.2785 
  20   2.0000      -9.968951      -271.2690 
  21   2.0000      -9.958287      -270.9788 
  22   2.0000      -9.946681      -270.6630 
  23   2.0000      -9.924344      -270.0551 
  24   2.0000      -9.920596      -269.9531 
  25   2.0000      -9.918437      -269.8944 
  26   2.0000      -9.916497      -269.8416 
  27   2.0000      -9.913271      -269.7538 
  28   2.0000      -1.238968       -33.7140 
  29   2.0000      -1.155142       -31.4330 
  30   2.0000      -1.151650       -31.3380 
  31   2.0000      -1.150159       -31.2974 
  32   2.0000      -1.145054       -31.1585 
  33   2.0000      -1.142131       -31.0790 
  34   2.0000      -1.024261       -27.8715 
  35   2.0000      -0.981436       -26.7062 
  36   2.0000      -0.912335       -24.8259 
  37   2.0000      -0.879473       -23.9317 
  38   2.0000      -0.843988       -22.9661 
  39   2.0000      -0.819493       -22.2995 
  40   2.0000      -0.786531       -21.4026 
  41   2.0000      -0.749012       -20.3817 
  42   2.0000      -0.741644       -20.1812 
  43   2.0000      -0.713445       -19.4138 
  44   2.0000      -0.705716       -19.2035 
  45   2.0000      -0.688729       -18.7413 
  46   2.0000      -0.672064       -18.2878 
  47   2.0000      -0.661113       -17.9898 
  48   2.0000      -0.635801       -17.3010 
  49   2.0000      -0.605603       -16.4793 
  50   2.0000      -0.599012       -16.2999 
  51   2.0000      -0.584493       -15.9049 
  52   2.0000      -0.578733       -15.7481 
  53   2.0000      -0.559224       -15.2172 
  54   2.0000      -0.554347       -15.0846 
  55   2.0000      -0.550206       -14.9719 
  56   2.0000      -0.545450       -14.8425 
  57   2.0000      -0.527650       -14.3581 
  58   2.0000      -0.509623       -13.8675 
  59   2.0000      -0.503592       -13.7034 
  60   2.0000      -0.497151       -13.5282 
  61   2.0000      -0.492640       -13.4054 
  62   2.0000      -0.483879       -13.1670 
  63   2.0000      -0.479433       -13.0460 
  64   2.0000      -0.462851       -12.5948 
  65   2.0000      -0.458978       -12.4894 
  66   2.0000      -0.454251       -12.3608 
  67   2.0000      -0.444592       -12.0980 
  68   2.0000      -0.439263       -11.9530 
  69   2.0000      -0.428175       -11.6512 
  70   2.0000      -0.426984       -11.6188 
  71   2.0000      -0.426104       -11.5949 
  72   2.0000      -0.422623       -11.5002 
  73   2.0000      -0.420779       -11.4500 
  74   2.0000      -0.416169       -11.3245 
  75   2.0000      -0.415213       -11.2985 
  76   2.0000      -0.405049       -11.0219 
  77   2.0000      -0.402509       -10.9528 
  78   2.0000      -0.400549       -10.8995 
  79   2.0000      -0.392088       -10.6693 
  80   2.0000      -0.386193       -10.5088 
  81   2.0000      -0.385186       -10.4814 
  82   2.0000      -0.382198       -10.4001 
  83   2.0000      -0.379633       -10.3303 
  84   2.0000      -0.370166       -10.0727 
  85   2.0000      -0.366304        -9.9676 
  86   2.0000      -0.365007        -9.9324 
  87   2.0000      -0.361790        -9.8448 
  88   2.0000      -0.356774        -9.7083 
  89   2.0000      -0.353590        -9.6217 
  90   2.0000      -0.341933        -9.3045 
  91   2.0000      -0.335575        -9.1315 
  92   2.0000      -0.327611        -8.9147 
  93   2.0000      -0.317564        -8.6414 
  94   2.0000      -0.307718        -8.3734 
  95   2.0000      -0.296748        -8.0749 
  96   2.0000      -0.284304        -7.7363 
  97   2.0000      -0.253328        -6.8934 
  98   2.0000      -0.249421        -6.7871 
  99   2.0000      -0.236885        -6.4460 
 100   2.0000      -0.226692        -6.1686 
 101   2.0000      -0.226061        -6.1514 
 102   2.0000      -0.222784        -6.0623 
 103   2.0000      -0.210530        -5.7288 
 104   0.0000      -0.060204        -1.6382 
 105   0.0000      -0.055043        -1.4978 
 106   0.0000      -0.040986        -1.1153 
 107   0.0000      -0.030703        -0.8355 
 108   0.0000      -0.021031        -0.5723 
 109   0.0000       0.003240         0.0882 
 110   0.0000       0.007471         0.2033 
 111   0.0000       0.014911         0.4057 
 112   0.0000       0.035392         0.9631 
 113   0.0000       0.035798         0.9741 
 114   0.0000       0.041078         1.1178 
*Only the first 10 virtual orbitals were printed.

                    ********************************
                    * MULLIKEN POPULATION ANALYSIS *
                    ********************************

-----------------------
MULLIKEN ATOMIC CHARGES
-----------------------
   0 F :   -0.222435
   1 C :    0.613547
   2 F :   -0.186454
   3 F :   -0.226522
   4 C :   -0.033413
   5 N :   -0.039681
   6 N :   -0.053448
   7 C :    0.063228
   8 N :   -0.032842
   9 C :   -0.301086
  10 H :    0.202815
  11 C :   -0.271394
  12 N :   -0.002734
  13 C :    0.302909
  14 O :   -0.450429
  15 C :   -0.415048
  16 H :    0.237550
  17 H :    0.186237
  18 C :   -0.336372
  19 N :   -0.573682
  20 H :    0.322179
  21 H :    0.306468
  22 H :    0.287469
  23 C :   -0.555551
  24 C :    0.140065
  25 C :   -0.196779
  26 C :    0.225364
  27 C :    0.271478
  28 C :   -0.350231
  29 C :    0.355516
  30 F :   -0.247181
  31 H :    0.210258
  32 F :   -0.223806
  33 F :   -0.228267
  34 H :    0.201894
  35 H :    0.187925
  36 H :    0.198066
  37 C :   -0.510675
  38 H :    0.278435
  39 H :    0.221569
  40 H :    0.224784
  41 H :    0.217103
  42 H :    0.203171
Sum of atomic charges:    0.0000000

--------------------------------
MULLIKEN REDUCED ORBITAL CHARGES
--------------------------------
  0 F s       :     3.927827  s :     3.927827
      pz      :     1.603700  p :     5.277281
      px      :     1.816579
      py      :     1.857002
      dz2     :     0.005062  d :     0.017327
      dxz     :     0.005378
      dyz     :     0.003788
      dx2y2   :     0.001415
      dxy     :     0.001683

  1 C s       :     2.914980  s :     2.914980
      pz      :     0.683285  p :     2.313005
      px      :     0.696566
      py      :     0.933154
      dz2     :     0.035846  d :     0.158468
      dxz     :     0.036198
      dyz     :     0.025396
      dx2y2   :     0.030839
      dxy     :     0.030189

  2 F s       :     3.923639  s :     3.923639
      pz      :     1.632841  p :     5.243727
      px      :     1.731834
      py      :     1.879052
      dz2     :     0.004576  d :     0.019089
      dxz     :     0.007397
      dyz     :     0.002909
      dx2y2   :     0.002177
      dxy     :     0.002030

  3 F s       :     3.934333  s :     3.934333
      pz      :     1.904680  p :     5.274966
      px      :     1.618760
      py      :     1.751527
      dz2     :     0.002542  d :     0.017222
      dxz     :     0.002577
      dyz     :     0.001304
      dx2y2   :     0.004047
      dxy     :     0.006753

  4 C s       :     3.158224  s :     3.158224
      pz      :     0.943043  p :     2.801937
      px      :     0.977659
      py      :     0.881235
      dz2     :     0.017388  d :     0.073253
      dxz     :     0.010626
      dyz     :     0.013963
      dx2y2   :     0.018911
      dxy     :     0.012364

  5 N s       :     3.551938  s :     3.551938
      pz      :     1.289495  p :     3.424496
      px      :     1.223250
      py      :     0.911751
      dz2     :     0.009892  d :     0.063247
      dxz     :     0.008186
      dyz     :     0.018955
      dx2y2   :     0.009332
      dxy     :     0.016882

  6 N s       :     3.549423  s :     3.549423
      pz      :     1.133683  p :     3.441678
      px      :     1.060616
      py      :     1.247378
      dz2     :     0.013224  d :     0.062348
      dxz     :     0.009139
      dyz     :     0.012531
      dx2y2   :     0.014061
      dxy     :     0.013393

  7 C s       :     3.157414  s :     3.157414
      pz      :     0.914753  p :     2.702723
      px      :     1.007349
      py      :     0.780621
      dz2     :     0.015321  d :     0.076634
      dxz     :     0.011543
      dyz     :     0.017079
      dx2y2   :     0.017163
      dxy     :     0.015528

  8 N s       :     3.269562  s :     3.269562
      pz      :     1.258910  p :     3.706162
      px      :     1.312414
      py      :     1.134838
      dz2     :     0.010547  d :     0.057118
      dxz     :     0.009310
      dyz     :     0.013710
      dx2y2   :     0.012376
      dxy     :     0.011175

  9 C s       :     3.231312  s :     3.231312
      pz      :     0.968142  p :     3.014956
      px      :     1.046330
      py      :     1.000484
      dz2     :     0.006890  d :     0.054818
      dxz     :     0.014496
      dyz     :     0.014413
      dx2y2   :     0.004188
      dxy     :     0.014829

 10 H s       :     0.797185  s :     0.797185

 11 C s       :     3.170206  s :     3.170206
      pz      :     0.990826  p :     3.046188
      px      :     1.143272
      py      :     0.912090
      dz2     :     0.006163  d :     0.055000
      dxz     :     0.013742
      dyz     :     0.015045
      dx2y2   :     0.006835
      dxy     :     0.013214

 12 N s       :     3.264873  s :     3.264873
      pz      :     1.379384  p :     3.688972
      px      :     1.067496
      py      :     1.242092
      dz2     :     0.005514  d :     0.048889
      dxz     :     0.011852
      dyz     :     0.007188
      dx2y2   :     0.011764
      dxy     :     0.012572

 13 C s       :     3.116593  s :     3.116593
      pz      :     0.859544  p :     2.469245
      px      :     0.832783
      py      :     0.776919
      dz2     :     0.012799  d :     0.111253
      dxz     :     0.020047
      dyz     :     0.018510
      dx2y2   :     0.037291
      dxy     :     0.022607

 14 O s       :     3.858313  s :     3.858313
      pz      :     1.534757  p :     4.554609
      px      :     1.604409
      py      :     1.415442
      dz2     :     0.005857  d :     0.037508
      dxz     :     0.007525
      dyz     :     0.008537
      dx2y2   :     0.005844
      dxy     :     0.009745

 15 C s       :     3.176878  s :     3.176878
      pz      :     0.959397  p :     3.196328
      px      :     1.162749
      py      :     1.074182
      dz2     :     0.009560  d :     0.041841
      dxz     :     0.005882
      dyz     :     0.010490
      dx2y2   :     0.011976
      dxy     :     0.003933

 16 H s       :     0.762450  s :     0.762450

 17 H s       :     0.813763  s :     0.813763

 18 C s       :     3.332861  s :     3.332861
      pz      :     0.907731  p :     2.940851
      px      :     1.122022
      py      :     0.911098
      dz2     :     0.014861  d :     0.062660
      dxz     :     0.007611
      dyz     :     0.013747
      dx2y2   :     0.012146
      dxy     :     0.014294

 19 N s       :     3.497762  s :     3.497762
      pz      :     1.416673  p :     4.038854
      px      :     1.327858
      py      :     1.294323
      dz2     :     0.010584  d :     0.037065
      dxz     :     0.006562
      dyz     :     0.003721
      dx2y2   :     0.008576
      dxy     :     0.007622

 20 H s       :     0.677821  s :     0.677821

 21 H s       :     0.693532  s :     0.693532

 22 H s       :     0.712531  s :     0.712531

 23 C s       :     3.368245  s :     3.368245
      pz      :     1.091665  p :     3.142343
      px      :     1.086906
      py      :     0.963772
      dz2     :     0.010092  d :     0.044963
      dxz     :     0.007338
      dyz     :     0.008747
      dx2y2   :     0.009313
      dxy     :     0.009472

 24 C s       :     3.164256  s :     3.164256
      pz      :     0.954228  p :     2.648062
      px      :     0.871466
      py      :     0.822368
      dz2     :     0.005728  d :     0.047617
      dxz     :     0.008510
      dyz     :     0.006338
      dx2y2   :     0.011536
      dxy     :     0.015506

 25 C s       :     3.023797  s :     3.023797
      pz      :     1.041998  p :     3.132769
      px      :     1.034528
      py      :     1.056243
      dz2     :     0.006357  d :     0.040213
      dxz     :     0.005043
      dyz     :     0.006330
      dx2y2   :     0.010566
      dxy     :     0.011917

 26 C s       :     3.106769  s :     3.106769
      pz      :     0.984447  p :     2.590707
      px      :     0.671424
      py      :     0.934837
      dz2     :     0.009641  d :     0.077160
      dxz     :     0.015688
      dyz     :     0.008813
      dx2y2   :     0.019399
      dxy     :     0.023619

 27 C s       :     3.110767  s :     3.110767
      pz      :     0.951023  p :     2.539968
      px      :     0.884527
      py      :     0.704417
      dz2     :     0.010599  d :     0.077787
      dxz     :     0.011024
      dyz     :     0.013921
      dx2y2   :     0.019003
      dxy     :     0.023239

 28 C s       :     3.124538  s :     3.124538
      pz      :     1.075833  p :     3.187757
      px      :     1.043561
      py      :     1.068363
      dz2     :     0.006104  d :     0.037936
      dxz     :     0.005468
      dyz     :     0.005631
      dx2y2   :     0.009825
      dxy     :     0.010908

 29 C s       :     3.091956  s :     3.091956
      pz      :     0.936343  p :     2.475786
      px      :     0.645064
      py      :     0.894379
      dz2     :     0.008974  d :     0.076742
      dxz     :     0.015107
      dyz     :     0.009292
      dx2y2   :     0.021672
      dxy     :     0.021697

 30 F s       :     3.937404  s :     3.937404
      pz      :     1.851818  p :     5.292308
      px      :     1.543208
      py      :     1.897283
      dz2     :     0.002379  d :     0.017469
      dxz     :     0.005047
      dyz     :     0.000857
      dx2y2   :     0.005150
      dxy     :     0.004036

 31 H s       :     0.789742  s :     0.789742

 32 F s       :     3.928815  s :     3.928815
      pz      :     1.808420  p :     5.276695
      px      :     1.922175
      py      :     1.546101
[...]
 77:   1159.52   0.000949    4.80  0.000255  ( 0.004606  0.009394 -0.012083)
 78:   1171.15   0.015171   76.67  0.004043  ( 0.048376  0.031504  0.026641)
 79:   1182.91   0.011953   60.41  0.003153  ( 0.007419 -0.026678  0.048853)
 80:   1200.01   0.021043  106.34  0.005472  (-0.069863  0.021495 -0.011370)
 81:   1212.31   0.017149   86.66  0.004414  ( 0.035282 -0.017856  0.053391)
 82:   1222.62   0.023151  117.00  0.005909  ( 0.071134 -0.024882  0.015161)
 83:   1234.04   0.002902   14.66  0.000734  ( 0.025369  0.005074  0.008026)
 84:   1251.11   0.003528   17.83  0.000880  ( 0.010329 -0.027033 -0.006525)
 85:   1255.42   0.005409   27.33  0.001345  (-0.020217  0.026660 -0.015001)
 86:   1261.74   0.003447   17.42  0.000852  (-0.021179  0.014946 -0.013437)
 87:   1279.54   0.008709   44.01  0.002124  (-0.021772  0.032436 -0.024454)
 88:   1291.91   0.018808   95.05  0.004543  (-0.059139  0.030976  0.009280)
 89:   1311.37   0.001219    6.16  0.000290  (-0.012259  0.002423  0.011568)
 90:   1335.79   0.005025   25.39  0.001174  ( 0.003332  0.001401  0.034070)
 91:   1339.54   0.008136   41.12  0.001895  (-0.012870 -0.040236 -0.010526)
 92:   1342.00   0.006104   30.85  0.001420  (-0.007834 -0.024777 -0.027281)
 93:   1355.95   0.003378   17.07  0.000777  ( 0.014363  0.022355  0.008447)
 94:   1356.89   0.001466    7.41  0.000337  (-0.006039 -0.004729 -0.016683)
 95:   1388.47   0.001148    5.80  0.000258  (-0.012156  0.008629 -0.005990)
 96:   1391.73   0.001969    9.95  0.000442  (-0.018708  0.004688  0.008339)
 97:   1405.42   0.002088   10.55  0.000464  (-0.009029 -0.016172 -0.010978)
 98:   1424.94   0.009001   45.49  0.001971  ( 0.037956 -0.017803 -0.014613)
 99:   1433.85   0.013562   68.54  0.002952  (-0.052795  0.005308  0.011666)
100:   1440.60   0.008990   45.43  0.001947  (-0.041495  0.004737 -0.014254)
101:   1465.63   0.008062   40.74  0.001717  ( 0.004820  0.036702  0.018611)
102:   1483.69   0.003778   19.09  0.000795  ( 0.014878  0.005940 -0.023196)
103:   1486.88   0.001966    9.93  0.000413  (-0.003252  0.013595 -0.014736)
104:   1491.69   0.013003   65.71  0.002720  (-0.026692  0.042323 -0.014716)
105:   1499.66   0.002411   12.18  0.000502  (-0.020238  0.007567  0.005902)
106:   1509.16   0.002203   11.14  0.000456  ( 0.010809  0.009247 -0.015915)
107:   1516.31   0.002142   10.83  0.000441  ( 0.003664 -0.018967 -0.008230)
108:   1532.44   0.003590   18.14  0.000731  (-0.014865 -0.019382 -0.011595)
109:   1535.02   0.052806  266.86  0.010735  (-0.069521 -0.062796 -0.044257)
110:   1627.13   0.004863   24.58  0.000933  (-0.007445 -0.027829 -0.010138)
111:   1650.61   0.003341   16.89  0.000632  ( 0.001541 -0.023991 -0.007334)
112:   1686.83   0.008401   42.45  0.001554  (-0.005824  0.022204  0.032050)
113:   1702.52   0.050323  254.31  0.009224  (-0.083216 -0.042721 -0.021770)
114:   2979.00   0.006418   32.44  0.000672  ( 0.015328  0.016847 -0.012393)
115:   3001.01   0.006907   34.91  0.000718  (-0.009602  0.015559  0.019594)
116:   3018.45   0.008051   40.68  0.000832  ( 0.016072  0.002200 -0.023857)
117:   3029.75   0.002132   10.77  0.000220  ( 0.004366 -0.011917  0.007650)
118:   3038.18   0.001327    6.71  0.000136  ( 0.000667  0.006974  0.009338)
119:   3042.06   0.001884    9.52  0.000193  (-0.002777 -0.013082 -0.003793)
120:   3056.27   0.003720   18.80  0.000380  ( 0.015668 -0.011112  0.003303)
121:   3086.43   0.003255   16.45  0.000329  ( 0.017942  0.000533 -0.002625)
122:   3092.83   0.001628    8.23  0.000164  (-0.006848  0.004739  0.009743)
123:   3113.78   0.001036    5.24  0.000104  ( 0.008023 -0.002077 -0.005933)
124:   3123.24   0.000390    1.97  0.000039  ( 0.001532 -0.004885 -0.003574)
125:   3162.68   0.000377    1.90  0.000037  (-0.005742  0.001794 -0.000998)
126:   3185.54   0.000094    0.47  0.000009  (-0.002887  0.000842 -0.000383)
127:   3426.36   0.000347    1.75  0.000032  (-0.004726  0.000163  0.003036)
128:   3518.66   0.000059    0.30  0.000005  ( 0.001837  0.001219  0.000583)

* The epsilon (eps) is given for a Dirac delta lineshape.
** The dipole moment derivative (T) already includes vibrational overlap.

The first frequency considered to be a vibration is 6
The total number of vibrations considered is 123


--------------------------
THERMOCHEMISTRY AT 298.15K
--------------------------

Temperature         ...   298.15 K
Pressure            ...     1.00 atm
Total Mass          ...   407.32 AMU
Quasi RRHO          ...     True
Cut-Off Frequency   ...     1.00 cm^-1

Throughout the following assumptions are being made:
  (1) The electronic state is orbitally nondegenerate
  (2) There are no thermally accessible electronically excited states
  (3) Hindered rotations indicated by low frequency modes are not
      treated as such but are treated as vibrations and this may
      cause some error
  (4) All equations used are the standard statistical mechanics
      equations for an ideal gas
  (5) All vibrations are strictly harmonic

freq.      13.82  E(vib)   ...       0.57 
freq.      22.71  E(vib)   ...       0.56 
freq.      33.86  E(vib)   ...       0.55 
freq.      37.44  E(vib)   ...       0.54 
freq.      40.01  E(vib)   ...       0.54 
freq.      47.92  E(vib)   ...       0.53 
freq.      63.23  E(vib)   ...       0.51 
freq.      81.58  E(vib)   ...       0.48 
freq.     104.36  E(vib)   ...       0.46 
freq.     106.05  E(vib)   ...       0.45 
freq.     121.52  E(vib)   ...       0.44 
freq.     137.80  E(vib)   ...       0.42 
freq.     175.56  E(vib)   ...       0.38 
freq.     197.86  E(vib)   ...       0.35 
freq.     210.72  E(vib)   ...       0.34 
freq.     244.80  E(vib)   ...       0.31 
freq.     262.08  E(vib)   ...       0.29 
freq.     263.85  E(vib)   ...       0.29 
freq.     281.73  E(vib)   ...       0.28 
freq.     290.74  E(vib)   ...       0.27 
freq.     296.81  E(vib)   ...       0.27 
freq.     316.18  E(vib)   ...       0.25 
freq.     333.79  E(vib)   ...       0.24 
freq.     352.61  E(vib)   ...       0.22 
freq.     356.85  E(vib)   ...       0.22 
freq.     386.26  E(vib)   ...       0.20 
freq.     389.76  E(vib)   ...       0.20 
freq.     400.59  E(vib)   ...       0.19 
freq.     415.28  E(vib)   ...       0.18 
freq.     426.79  E(vib)   ...       0.18 
freq.     437.49  E(vib)   ...       0.17 
freq.     446.24  E(vib)   ...       0.17 
freq.     458.18  E(vib)   ...       0.16 
freq.     471.32  E(vib)   ...       0.15 
freq.     474.87  E(vib)   ...       0.15 
freq.     526.81  E(vib)   ...       0.13 
freq.     539.12  E(vib)   ...       0.12 
freq.     545.07  E(vib)   ...       0.12 
freq.     590.39  E(vib)   ...       0.10 
freq.     614.86  E(vib)   ...       0.10 
freq.     621.61  E(vib)   ...       0.09 
freq.     638.67  E(vib)   ...       0.09 
freq.     663.11  E(vib)   ...       0.08 
freq.     672.99  E(vib)   ...       0.08 
freq.     684.60  E(vib)   ...       0.07 
freq.     703.71  E(vib)   ...       0.07 
freq.     718.36  E(vib)   ...       0.07 
freq.     723.05  E(vib)   ...       0.07 
freq.     730.10  E(vib)   ...       0.06 
freq.     751.87  E(vib)   ...       0.06 
freq.     763.66  E(vib)   ...       0.06 
freq.     781.48  E(vib)   ...       0.05 
freq.     799.94  E(vib)   ...       0.05 
freq.     848.87  E(vib)   ...       0.04 
freq.     853.58  E(vib)   ...       0.04 
freq.     865.55  E(vib)   ...       0.04 
freq.     886.78  E(vib)   ...       0.04 
freq.     912.48  E(vib)   ...       0.03 
freq.     935.56  E(vib)   ...       0.03 
freq.     943.31  E(vib)   ...       0.03 
freq.     990.99  E(vib)   ...       0.02 
freq.     997.97  E(vib)   ...       0.02 
freq.    1011.81  E(vib)   ...       0.02 
freq.    1020.02  E(vib)   ...       0.02 
freq.    1051.25  E(vib)   ...       0.02 
freq.    1060.91  E(vib)   ...       0.02 
freq.    1066.27  E(vib)   ...       0.02 
freq.    1110.63  E(vib)   ...       0.02 
freq.    1113.74  E(vib)   ...       0.01 
freq.    1117.19  E(vib)   ...       0.01 
freq.    1138.83  E(vib)   ...       0.01 
freq.    1159.52  E(vib)   ...       0.01 
freq.    1171.15  E(vib)   ...       0.01 
freq.    1182.91  E(vib)   ...       0.01 
freq.    1200.01  E(vib)   ...       0.01 
freq.    1212.31  E(vib)   ...       0.01 
freq.    1222.62  E(vib)   ...       0.01 
freq.    1234.04  E(vib)   ...       0.01 
freq.    1251.11  E(vib)   ...       0.01 
freq.    1255.42  E(vib)   ...       0.01 
freq.    1261.74  E(vib)   ...       0.01 
freq.    1279.54  E(vib)   ...       0.01 
freq.    1291.91  E(vib)   ...       0.01 
freq.    1311.37  E(vib)   ...       0.01 
freq.    1335.79  E(vib)   ...       0.01 
freq.    1339.54  E(vib)   ...       0.01 
freq.    1342.00  E(vib)   ...       0.01 
freq.    1355.95  E(vib)   ...       0.01 
freq.    1356.89  E(vib)   ...       0.01 
freq.    1388.47  E(vib)   ...       0.00 
freq.    1391.73  E(vib)   ...       0.00 
freq.    1405.42  E(vib)   ...       0.00 
freq.    1424.94  E(vib)   ...       0.00 
freq.    1433.85  E(vib)   ...       0.00 
freq.    1440.60  E(vib)   ...       0.00 
freq.    1465.63  E(vib)   ...       0.00 
freq.    1483.69  E(vib)   ...       0.00 
freq.    1486.88  E(vib)   ...       0.00 
freq.    1491.69  E(vib)   ...       0.00 
freq.    1499.66  E(vib)   ...       0.00 
freq.    1509.16  E(vib)   ...       0.00 
freq.    1516.31  E(vib)   ...       0.00 
freq.    1532.44  E(vib)   ...       0.00 
freq.    1535.02  E(vib)   ...       0.00 
freq.    1627.13  E(vib)   ...       0.00 
freq.    1650.61  E(vib)   ...       0.00 
freq.    1686.83  E(vib)   ...       0.00 
freq.    1702.52  E(vib)   ...       0.00 
freq.    2979.00  E(vib)   ...       0.00 
freq.    3001.01  E(vib)   ...       0.00 
freq.    3018.45  E(vib)   ...       0.00 
freq.    3029.75  E(vib)   ...       0.00 
freq.    3038.18  E(vib)   ...       0.00 
freq.    3042.06  E(vib)   ...       0.00 
freq.    3056.27  E(vib)   ...       0.00 
freq.    3086.43  E(vib)   ...       0.00 
freq.    3092.83  E(vib)   ...       0.00 
freq.    3113.78  E(vib)   ...       0.00 
freq.    3123.24  E(vib)   ...       0.00 
freq.    3162.68  E(vib)   ...       0.00 
freq.    3185.54  E(vib)   ...       0.00 
freq.    3426.36  E(vib)   ...       0.00 
freq.    3518.66  E(vib)   ...       0.00 

------------
INNER ENERGY
------------

The inner energy is: U= E(el) + E(ZPE) + E(vib) + E(rot) + E(trans)
    E(el)   - is the total energy from the electronic structure calculation
              = E(kin-el) + E(nuc-el) + E(el-el) + E(nuc-nuc)
    E(ZPE)  - the the zero temperature vibrational energy from the frequency calculation
    E(vib)  - the the finite temperature correction to E(ZPE) due to population
              of excited vibrational states
    E(rot)  - is the rotational thermal energy
    E(trans)- is the translational thermal energy

Summary of contributions to the inner energy U:
Electronic energy                ...  -1566.12677605 Eh
Zero point energy                ...      0.31212362 Eh     195.86 kcal/mol
Thermal vibrational correction   ...      0.02176031 Eh      13.65 kcal/mol
Thermal rotational correction    ...      0.00141627 Eh       0.89 kcal/mol
Thermal translational correction ...      0.00141627 Eh       0.89 kcal/mol
-----------------------------------------------------------------------
Total thermal energy                  -1565.79005958 Eh


Summary of corrections to the electronic energy:
(perhaps to be used in another calculation)
Total thermal correction                  0.02459285 Eh      15.43 kcal/mol
Non-thermal (ZPE) correction              0.31212362 Eh     195.86 kcal/mol
-----------------------------------------------------------------------
Total correction                          0.33671647 Eh     211.29 kcal/mol


--------
ENTHALPY
--------

The enthalpy is H = U + kB*T
                kB is Boltzmann's constant
Total thermal energy              ...  -1565.79005958 Eh 
Thermal Enthalpy correction       ...      0.00094421 Eh       0.59 kcal/mol
-----------------------------------------------------------------------
Total Enthalpy                    ...  -1565.78911537 Eh


Note: Only C1 symmetry has been detected, increase convergence thresholds 
      if your molecule has a higher symmetry. Symmetry factor of 1.0 is   
      used for the rotational entropy correction. 
 

Note: Rotational entropy computed according to Herzberg 
Infrared and Raman Spectra, Chapter V,1, Van Nostrand Reinhold, 1945 
Point Group:  C1, Symmetry Number:   1  
Rotational constants in cm-1:     0.007957     0.005089     0.004042 

Vibrational entropy computed according to the QRRHO of S. Grimme
Chem.Eur.J. 2012 18 9955 using a reference frequency of 100.0 cm-1


-------
ENTROPY
-------

The entropy contributions are T*S = T*(S(el)+S(vib)+S(rot)+S(trans))
     S(el)   - electronic entropy
     S(vib)  - vibrational entropy
     S(rot)  - rotational entropy
     S(trans)- translational entropy
The entropies will be listed as multiplied by the temperature to get
units of energy

Electronic entropy                ...      0.00000000 Eh      0.00 kcal/mol
Vibrational entropy               ...      0.03888788 Eh     24.40 kcal/mol
Rotational entropy                ...      0.01688752 Eh     10.60 kcal/mol
Translational entropy             ...      0.02086029 Eh     13.09 kcal/mol
-----------------------------------------------------------------------
Final entropy term                ...      0.07663568 Eh     48.09 kcal/mol

In case the symmetry of your molecule has not been determined correctly
or in case you have a reason to use a different symmetry number we print 
out the resulting rotational entropy values for sn=1,12:

 non-linear molecules -----------------------------------
|  sn= 1 | S(rot)=       0.01688752 Eh     10.60 kcal/mol|
|  sn= 2 | S(rot)=       0.01623306 Eh     10.19 kcal/mol|
|  sn= 3 | S(rot)=       0.01585023 Eh      9.95 kcal/mol|
|  sn= 4 | S(rot)=       0.01557861 Eh      9.78 kcal/mol|
|  sn= 5 | S(rot)=       0.01536792 Eh      9.64 kcal/mol|
|  sn= 6 | S(rot)=       0.01519577 Eh      9.54 kcal/mol|
|  sn= 7 | S(rot)=       0.01505023 Eh      9.44 kcal/mol|
|  sn= 8 | S(rot)=       0.01492415 Eh      9.37 kcal/mol|
|  sn= 9 | S(rot)=       0.01481294 Eh      9.30 kcal/mol|
|  sn=10 | S(rot)=       0.01471346 Eh      9.23 kcal/mol|
|  sn=11 | S(rot)=       0.01462347 Eh      9.18 kcal/mol|
|  sn=12 | S(rot)=       0.01454132 Eh      9.12 kcal/mol|
 linear molecules ---------------------------------------
|  Dinfh | S(rot)=       0.01052932 Eh      6.61 kcal/mol|
|  Cinfv | S(rot)=       0.01118378 Eh      7.02 kcal/mol|
 --------------------------------------------------------


-------------------
GIBBS FREE ENERGY
-------------------

The Gibbs free energy is G = H - T*S

Total enthalpy                    ...  -1565.78911537 Eh 
Total entropy correction          ...     -0.07663568 Eh    -48.09 kcal/mol
-----------------------------------------------------------------------
Final Gibbs free energy         ...  -1565.86575106 Eh

For completeness - the Gibbs free energy minus the electronic energy
G-E(el)                           ...      0.26102499 Eh    163.80 kcal/mol


Maximum memory used throughout the entire PROP-calculation: 157.8 MB

--------------------------------
SUGGESTED CITATIONS FOR THIS RUN
--------------------------------

Below you find a list of papers that are relevant to this ORCA run
We neither can nor want to force you to cite these papers, but we appreciate if you do
You receive ORCA, which is the product of decades of hard work by many enthusiastic individuals, for free
The only thing we kindly ask in return is that you cite our papers,
We deeply appreciate it, if you show your appreciation for ORCA by not just citing the generic ORCA reference.

Please note that relegating all ORCA citations to the supporting information does *not* help us.
SI sections are not indexed - citations you put there will not count into any citation statistics
But we need these citations in order to attract the funding resources that allow us to do what we are doing

Therefore, if you are a happy ORCA user, please consider citing a few of the papers listed below in the main body of your paper

In addition to the list printed below, the program has created the file m1_00_Sitagliptin-GitHubGFN2-B97-3C-TZ.bibtex that contains the list in bibtex format
You can import this file easily into all common literature databanks and citation aid programs


List of essential papers. We consider these as the minimum necessary citations

  1. Neese,F.
     Software update: the ORCA program system, version 5.0
     WIRES Comput. Molec. Sci., 2022 12(1)e1606
     doi.org/10.1002/wcms.1606

List of papers to cite with high priority. The work reported in these papers was absolutely
necessary for this run to complete.
Our perspective: the developers of density functionals and basis sets usually get cited in chemistry papers
Good! But without the algorithms to do something with them, the functionals or basis sets would not do anything.
Hence, in our opinion, the algorithm design and method developments papers are equally worthy of getting cited

  1. Neese,F.
     An improvement of the resolution of the identity approximation for the formation of the Coulomb matrix
     J. Comp. Chem., 2003 24(14)1740-1747
     doi.org/10.1002/jcc.10318
  2. Bykov,D.; Petrenko,T.; Izsak,R.; Kossmann,S.; Becker,U.; Valeev,E.; Neese,F.
     Efficient implementation of the analytic second derivatives of Hartree-Fock and hybrid DFT energies: a detailed analysis of different approximations
     Molec. Phys., 2015 113 1961-1977
     doi.org/10.1080/00268976.2015.1025114
  3. Neese,F.
     The SHARK Integral Generation and Digestion System
     J. Comp. Chem., 2022  1-16
     doi.org/10.1002/jcc.26942
  4. Grimme,S.; Antony,J.; Ehrlich,S.; Krieg,H.
     A consistent and accurate ab initio parametrization of density functional dispersion correction (DFT-D) for the 94 elements H-Pu
     J. Chem. Phys., 2010 132 154104
     doi.org/10.1063/1.3382344
  5. Grimme,S.; Ehrlich,S.; Goerigk,L.
     Effect of the damping function in dispersion corrected density functional theory
     J. Comput. Chem., 2011 32(7)1456-1465
     doi.org/10.1002/jcc.21759

List of suggested additional citations. These are papers that are important in the 'surrounding' of 
of this run, or papers that preceded the highly important papers. If you like your results we are grateful for a citation.

  1. Neese,F.
     The ORCA program system
     WIRES Comput. Molec. Sci., 2012 2(1)73-78
     doi.org/10.1002/wcms.81
  2. Neese,F.
     Software update: the ORCA program system, version 4.0
     WIRES Comput. Molec. Sci., 2018 8(1)1-6
     doi.org/10.1002/wcms.1327
  3. Neese,F.; Wennmohs,F.; Becker,U.; Riplinger,C.
     The ORCA quantum chemistry program package
     J. Chem. Phys., 2020 152 Art. No. L224108
     doi.org/10.1063/5.0004608

List of optional additional citations

  1. Neese,F.
     Approximate second-order SCF convergence for spin unrestricted wavefunctions
     Chem. Phys. Lett., 2000 325(1-3)93-98
     doi.org/10.1016/s0009-2614(00)00662-x

Timings for individual modules:

Sum of individual times          ...      817.599 sec (=  13.627 min)
Startup calculation              ...       58.564 sec (=   0.976 min)   7.2 %
SCF iterations                   ...      182.760 sec (=   3.046 min)  22.4 %
Property integrals               ...      182.916 sec (=   3.049 min)  22.4 %
SCF Response                     ...      236.501 sec (=   3.942 min)  28.9 %
Property calculations            ...       67.662 sec (=   1.128 min)   8.3 %
SCF Gradient evaluation          ...       89.050 sec (=   1.484 min)  10.9 %
Geometry relaxation              ...        0.146 sec (=   0.002 min)   0.0 %
                             ****ORCA TERMINATED NORMALLY****
TOTAL RUN TIME: 0 days 0 hours 13 minutes 40 seconds 289 msec
