
                                 *****************
                                 * O   R   C   A *
                                 *****************

                                            #,                                       
                                            ###                                      
                                            ####                                     
                                            #####                                    
                                            ######                                   
                                           ########,                                 
                                     ,,################,,,,,                         
                               ,,#################################,,                 
                          ,,##########################################,,             
                       ,#########################################, ''#####,          
                    ,#############################################,,   '####,        
                  ,##################################################,,,,####,       
                ,###########''''           ''''###############################       
              ,#####''   ,,,,##########,,,,          '''####'''          '####       
            ,##' ,,,,###########################,,,                        '##       
           ' ,,###''''                  '''############,,,                           
         ,,##''                                '''############,,,,        ,,,,,,###''
      ,#''                                            '''#######################'''  
     '                                                          ''''####''''         
             ,#######,   #######,   ,#######,      ##                                
            ,#'     '#,  ##    ##  ,#'     '#,    #''#        ,####,   ,####,        
            ##       ##  ##   ,#'  ##            #'  '#       #'       #'  '#        
            ##       ##  #######   ##           ,######,      #####,   #    #        
            '#,     ,#'  ##    ##  '#,     ,#' ,#      #,     #,   #   #,  ,#        
             '#######'   ##     ##  '#######'  #'      '#     '####' # '####'        



                #########################################################
                #                        -***-                          #
                #          Department of theory and spectroscopy        #
                #                                                       #
                #                      Frank Neese                      #
                #                                                       #
                #     Directorship, Architecture, Infrastructure        #
                #                    SHARK, DRIVERS                     #
                #        Core code/Algorithms in most modules           #
                #                                                       #
                #        Max Planck Institute fuer Kohlenforschung      #
                #                Kaiser Wilhelm Platz 1                 #
                #                 D-45470 Muelheim/Ruhr                 #
                #                      Germany                          #
                #                                                       #
                #                  All rights reserved                  #
                #                        -***-                          #
                #########################################################


                         Program Version 6.0.1  -  RELEASE   -


 With contributions from (in alphabetic order):
[Max-Planck-Institut fuer Kohlenforschung]                               
  Daniel Aravena         : Magnetic Suceptibility                        
  Michael Atanasov       : Ab Initio Ligand Field Theory (pilot matlab implementation)
  Alexander A. Auer      : GIAO ZORA, VPT2 properties, NMR spectrum      
  Ute Becker             : All parallelization in ORCA, NUMFREQ, NUMCALC 
  Giovanni Bistoni       : ED, misc. LED, open-shell LED, HFLD           
  Martin Brehm           : Molecular dynamics                            
  Dmytro Bykov           : pre 5.0 version of the SCF Hessian            
  Marcos Casanova-Páez   : Triplet and SCS-CIS(D). UHF-(DLPNO)-IP/EA/STEOM-CCSD. UHF-CVS-IP/STEOM-CCSD   
  Vijay G. Chilkuri      : MRCI spin determinant printing, contributions to CSF-ICE 
  Pauline Colinet        : FMM embedding                                 
  Dipayan Datta          : RHF DLPNO-CCSD density                        
  Achintya Kumar Dutta   : EOM-CC, STEOM-CC                              
  Nicolas Foglia         : Exact transition moments, OPA infrastructure, MCD improvements    
  Dmitry Ganyushin       : Spin-Orbit,Spin-Spin,Magnetic field MRCI      
  Miquel Garcia-Rates    : C-PCM and meta-GGA Hessian, CCSD/C-PCM, Gaussian charge scheme 
  Tiago L. C. Gouveia    : GS-ROHF, GS-ROCIS                             
  Yang Guo               : DLPNO-NEVPT2, F12-NEVPT2, CIM, IAO-localization        
  Andreas Hansen         : Spin unrestricted coupled pair/coupled cluster methods 
  Ingolf Harden          : AUTO-CI MPn and infrastructure                
  Benjamin Helmich-Paris : MC-RPA, TRAH-(SCF,CASSCF), AVAS, COSX integrals, SCF dyn. polar. 
  Lee Huntington         : MR-EOM, pCC                                   
  Robert Izsak           : Overlap fitted RIJCOSX, COSX-SCS-MP3, EOM     
  Riya Kayal             : Wick's Theorem for AUTO-CI, AUTO-CI UHF-CCSDT 
  Emily Kempfer          : AUTO-CI, RHF CISDT and CCSDT                  
  Christian Kollmar      : KDIIS, OOCD, Brueckner-CCSD(T), CCSD density, CASPT2, CASPT2-K, improved NEVPT2 
  Axel Koslowski         : Symmetry handling                             
  Simone Kossmann        : meta-GGA functionals, TD-DFT gradient, OOMP2, (MP2 Hessian; deprecated post 5.0) 
  Lucas Lang             : DCDCAS                                        
  Marvin Lechner         : AUTO-CI (C++ implementation), FIC-MRCC        
  Spencer Leger          : CASSCF response                               
  Dagmar Lenk            : GEPOL surface, SMD, ORCA-2-JSON               
  Dimitrios Liakos       : Extrapolation schemes; Compound Job, initial MDCI parallelization 
  Dimitrios Manganas     : Further ROCIS development; embedding schemes. LFT, Crystal Embedding 
  Dimitrios Pantazis     : SARC Basis sets                               
  Anastasios Papadopoulos: AUTO-CI, single reference methods and gradients 
  Taras Petrenko         : pre 6.0 DFT Hessian and TD-DFT gradient, (ASA, deprecated), ECA, 1-Electron XAS/XES, NRVS 
  Peter Pinski           : DLPNO-MP2, DLPNO-MP2 Gradient                 
  Christoph Reimann      : Effective Core Potentials                     
  Marius Retegan         : Local ZFS, SOC                                
  Christoph Riplinger    : Optimizer, TS searches, QM/MM, DLPNO-CCSD(T), (RO)-DLPNO pert. Triples 
  Michael Roemelt        : Original ROCIS implementation                 
  Masaaki Saitow         : Open-shell DLPNO-CCSD energy and density      
  Barbara Sandhoefer     : DKH picture change effects                    
  Kantharuban Sivalingam : CASSCF convergence/infrastructure, NEVPT2 and variants, FIC-MRCI 
  Bernardo de Souza      : ESD, SOC TD-DFT                               
  Georgi L. Stoychev     : AutoAux, RI-MP2 NMR, DLPNO-MP2 response, X2C  
  Van Anh Tran           : RI-MP2 g-tensors                              
  Willem Van den Heuvel  : Paramagnetic NMR                              
  Zikuan Wang            : NOTCH, Electric field optimization            
  Frank Wennmohs         : Technical directorship and infrastructure     
  Hang Xu                : AUTO-CI-Response properties                   
                                                                         
[FACCTs GmbH]                                                            
  Markus Bursch, Miquel Garcia-Rates, Christoph Riplinger, Bernardo de Souza, Georgi L. Stoychev 
                                                                 
  APM, Basis sets (HGBS, AHGBS, def-TZVP (Ac-Lr), def2-XVPD (La-Lu)), CI-OPT, improved COSX, DLPNO-Multilevel,           
  DOCKER, DRACO, updates on ESD, GOAT, IRC, LR-CPCM, MBIS, meta-GGA TD-DFT gradient, ML-optimized integration grids, 
  MM, NACMEs, nearIR, NEB, NEB-TS, NL-DFT gradient (VV10), 2- and 3-layer-ONIOM, interface openCOSMO-RS, QMMM,   
  Crystal-QMMM, SF, symmetry and pop. for TD-DFT, r2SCAN hybrids, SOLVATOR                                   
                                                                         
[Other institutions]                                                     
  V. Asgeirsson          : NEB                                           
  Christoph Bannwarth    : sTDA-DFT, sTD-DFT, PBEh-3c, B97-3c, D3        
  Sebastian Ehlert       : rSCAN, r2SCAN, r2SCAN-3c, D4, dhf basis sets  
  Marvin Friede          : D4 for Fr, Ra, Ac-Lr                          
  Lars Goerigk           : TD-DFT with DH, B97 family of functionals     
  Stefan Grimme          : VdW corrections, initial TS optimization, DFT functionals, gCP, sTDA/sTD-DF 
  Waldemar Hujo          : DFT-NL                                        
  H. Jonsson             : NEB                                           
  Holger Kruse           : gCP                                           
  Marcel Mueller         : wB97X-3c, vDZP basis set                      
  Hagen Neugebauer       : wr2SCAN                                       
  Tobias Risthaus        : range-separated hybrid DFT                    
  Lukas Wittmann         : regularized MP2, r2SCAN double-hybrids, wr2SCAN        
                                                                         
We gratefully acknowledge several colleagues who have allowed us to      
interface, adapt or use parts of their codes:                            
  Ed Valeev, F. Pavosevic, A. Kumar             : LibInt (2-el integral package), F12 methods 
  Garnet Chan, S. Sharma, J. Yang, R. Olivares  : DMRG                   
  Ulf Ekstrom                                   : XCFun DFT Library      
  Mihaly Kallay                                 : mrcc  (arbitrary order and MRCC methods)
  Frank Weinhold                                : gennbo (NPA and NBO analysis)           
  Simon Mueller                                 : openCOSMO-RS                            
  Christopher J. Cramer and Donald G. Truhlar   : smd solvation model                     
  S Lehtola, MJT Oliveira, MAL Marques          : LibXC Library                           
  Liviu Ungur et al                             : ANISO software                          


 Your calculation uses the libint2 library for the computation of 2-el integrals
 For citations please refer to: http://libint.valeyev.net

 Your ORCA version has been built with support for libXC version: 6.2.2
 For citations please refer to: https://libxc.gitlab.io

 This ORCA versions uses:
   CBLAS   interface :  Fast vector & matrix operations
   LAPACKE interface :  Fast linear algebra routines
   SCALAPACK package :  Parallel linear algebra routines
   Shared memory     :  Shared parallel matrices
   BLAS/LAPACK       :  OpenBLAS 0.3.27  USE64BITINT DYNAMIC_ARCH NO_AFFINITY Zen SINGLE_THREADED
        Core in use  :  Zen
   Copyright (c) 2011-2014, The OpenBLAS Project


NOTE: MaxCore=6000 MB was set to SCF,MP2,MDCI,CIPSI,MRCI and CIS
      => If you want to overwrite this, your respective input block should be placed after the MaxCore statement
Your calculation utilizes the atom-pairwise dispersion correction
with the Becke-Johnson damping scheme (D3BJ)


Your calculation employs the composite approach B97-3c by Grimme and coworkers.
For the correct reference, please check the publication list of the Grimme group:
http://www.thch.uni-bonn.de/tc/index.php?section=publikationen&subsection=grimme#2017
   

XCFun DFT library Copyright 2009-2010 Ulf Ekstrom and contributors.
See http://admol.org/xcfun for more information.
This is free software; see the source code for copying conditions.
There is ABSOLUTELY NO WARRANTY; not even for MERCHANTABILITY or FITNESS FOR A PARTICULAR PURPOSE.
For details see the documentation.
Scientific users of this library should cite U. Ekstrom, L. Visscher, R. Bast, A. J. Thorvaldsen and K. Ruud;
J.Chem.Theor.Comp. 2010, DOI: 10.1021/ct100117s
XCFun Version 0.99 

================================================================================

----- Orbital basis set information -----
Your calculation utilizes the basis: def2-mTZVP
----- AuxJ basis set information -----
Your calculation utilizes the basis: def2-mTZVP/J
================================================================================
                                        WARNINGS
                       Please study these warnings very carefully!
================================================================================


WARNING: Geometry Optimization
  ===> : Switching off AutoStart
         For restart on a previous wavefunction, please use MOREAD

================================================================================
                                       INPUT FILE
================================================================================
NAME = m1_00_Penicilin-GitHubGFN2-B97-3C-TZ.inp
|  1> %pal nprocs 16 end
|  2> %MaxCore 6000
|  3> # put your comments here
|  4> ! B97-3C  OPT  FREQ DEFGRID3 NOTRAH
|  5> %scf MaxIter 800 end
|  6> %output
|  7> Print [P_Hirshfeld] 1
|  8> end
|  9> %geom
| 10> MaxIter 3000
| 11>  TolE 1e-6 #TolE 5e-6 Energy change (a.u.)
| 12>  TolRMSG 3e-5 #TolRMSG 1e-4 RMS gradient (a.u.)
| 13>  TolMaxG 1e-4 #TolMaxG 3e-3 Max. element of gradient (a.u.)
| 14>  TolRMSD 2e-3 #TolRMSD 2e-3 RMS displacement (a.u.)
| 15>  TolMaxD 4e-3 #TolMaxD 4e-3 Max. displacement (a.u.)
| 16> end
| 17> * xyz 0 1
| 18>  S        -0.4552131046        -0.6783030666        -0.9904298964
| 19>  O        -1.1204910088         2.2731842989         2.1493047804
| 20>  O        -4.8378490635        -0.7276489584         0.1445772670
| 21>  O        -3.8030291309         0.2574028458        -1.5703418860
| 22>  O         2.4605478729         3.0608169476        -1.0137974411
| 23>  N        -1.8696860718         1.1637400676         0.2196259378
| 24>  N         1.2961669250         1.5447760824         0.1901127792
| 25>  C        -0.9486981111         1.0791779427        -0.8871020853
| 26>  C        -1.6208660528        -1.2074919140         0.3640832078
| 27>  C        -2.6192580540        -0.0195469011         0.5229031040
| 28>  C         0.0001969108         2.0461000380        -0.1238502332
| 29>  C        -1.0326060476         1.9140901657         1.0127368195
| 30>  C        -2.2931940604        -2.5049209672        -0.0556326154
| 31>  C        -0.8263280055        -1.3928907579         1.6515732010
| 32>  C        -3.7956800879        -0.1338030210        -0.4383408403
| 33>  C         2.4346389024         2.0492770249        -0.3548723211
| 34>  C         3.6754109198         1.2305600733        -0.0045682695
| 35>  C         3.3781909299        -0.2399319231         0.0406639142
| 36>  C         3.1882699773        -0.8956457816         1.2524319982
| 37>  C         3.2178688916        -0.9545850631        -1.1414829960
| 38>  C         2.8473329861        -2.2373467802         1.2811931682
| 39>  C         2.8739819003        -2.2933020617        -1.1131828261
| 40>  C         2.6854109476        -2.9376289203         0.0981922564
| 41>  H        -1.3421661476         1.3961218270        -1.8518921085
| 42>  H        -2.9965350174         0.0238552173         1.5476331124
| 43>  H         0.1122658890         3.0370229863        -0.5692153539
| 44>  H        -1.5555890570        -3.3031639668        -0.0879975480
| 45>  H        -3.0719530333        -2.7727688880         0.6561364441
| 46>  H        -2.7334940966        -2.4099160862        -1.0456976108
| 47>  H        -0.4475349976        -0.4417557122         2.0218500755
| 48>  H        -1.4583359752        -1.8324696711         2.4213052755
| 49>  H         0.0191259919        -2.0539057742         1.4719392484
| 50>  H         1.3436879459         0.6331821340         0.6257458847
| 51>  H        -5.5853500853        -0.7974910353        -0.4719176979
| 52>  H         4.0347169526         1.5832841895         0.9651336761
| 53>  H         4.4355138916         1.4593509897        -0.7528273237
| 54>  H         3.3117110075        -0.3537576718         2.1802519300
| 55>  H         3.3578698546        -0.4519391735        -2.0869880601
| 56>  H         2.7081920231        -2.7346146694         2.2305522317
| 57>  H         2.7478318702        -2.8348221713        -2.0382827579
| 58>  H         2.4153389545        -3.9830989193         0.1200573892
| 59> *
| 60> 
| 61> 
| 62> 
| 63> 
| 64>                          ****END OF INPUT****
================================================================================

                       *****************************
                       * Geometry Optimization Run *
                       *****************************

Geometry optimization settings:
Update method            Update   .... BFGS
Choice of coordinates    CoordSys .... (2022) Redundant Internals
Initial Hessian          InHess   .... Almloef's Model
Max. no of cycles        MaxIter  .... 3000

Convergence Tolerances:
Energy Change            TolE     ....  1.0000e-06 Eh
Max. Gradient            TolMAXG  ....  1.0000e-04 Eh/bohr
RMS Gradient             TolRMSG  ....  3.0000e-05 Eh/bohr
Max. Displacement        TolMAXD  ....  4.0000e-03 bohr
RMS Displacement         TolRMSD  ....  2.0000e-03 bohr
Strict Convergence                .... False

------------------------------------------------------------------------------
                        ORCA OPTIMIZATION COORDINATE SETUP
------------------------------------------------------------------------------

The optimization will be done in redundant internal coordinates (2022)
Making redundant internal coordinates   ...  (2022 redundants) done
Evaluating the initial hessian          ...  (Almloef) done
Evaluating the coordinates              ...  done
Calculating the B-matrix                .... done
Calculating the G-matrix                .... done
Diagonalizing the G-matrix              .... done
Small eigenvalue found = 3.890e-03
Small eigenvalue found = 7.642e-03
Small eigenvalue found = 1.208e-02
Small eigenvalue found = 2.806e-02
The first mode is                       ....  103
The number of degrees of freedom        ....  117

    -----------------------------------------------------------------
                    Redundant Internal Coordinates


    -----------------------------------------------------------------
         Definition                    Initial Value    Approx d2E/dq
    -----------------------------------------------------------------
      1. B(C   7,N   5)                  1.4423         0.461786   
      2. B(C   7,S   0)                  1.8284         0.336598   
      3. B(C   8,S   0)                  1.8637         0.295596   
      4. B(C   9,C   8)                  1.5599         0.334739   
      5. B(C   9,N   5)                  1.4332         0.477513   
      6. B(C  10,C   7)                  1.5550         0.340847   
      7. B(C  10,N   6)                  1.4246         0.492834   
      8. B(C  11,C  10)                  1.5414         0.358242   
      9. B(C  11,O   1)                  1.1952         1.144711   
     10. B(C  11,N   5)                  1.3758         0.589621   
     11. B(C  12,C   8)                  1.5204         0.387035   
     12. B(C  13,C   8)                  1.5242         0.381570   
     13. B(C  14,C   9)                  1.5235         0.382621   
     14. B(C  14,O   3)                  1.1977         1.134105   
     15. B(C  14,O   2)                  1.3336         0.688357   
     16. B(C  15,N   6)                  1.3593         0.626446   
     17. B(C  15,O   4)                  1.2075         1.094046   
     18. B(C  16,C  15)                  1.5273         0.377353   
     19. B(C  17,C  16)                  1.5009         0.415708   
     20. B(C  18,C  17)                  1.3908         0.622891   
     21. B(C  19,C  17)                  1.3906         0.623309   
     22. B(C  20,C  18)                  1.3846         0.637222   
     23. B(C  21,C  19)                  1.3825         0.642322   
     24. B(C  22,C  21)                  1.3850         0.636446   
     25. B(C  22,C  20)                  1.3842         0.638171   
     26. B(H  23,C   7)                  1.0891         0.361322   
     27. B(H  24,C   9)                  1.0928         0.356366   
     28. B(H  25,C  10)                  1.0922         0.357239   
     29. B(H  26,C  12)                  1.0873         0.363641   
     30. B(H  27,C  12)                  1.0885         0.362095   
     31. B(H  28,C  12)                  1.0877         0.363139   
     32. B(H  29,C  13)                  1.0887         0.361836   
     33. B(H  30,C  13)                  1.0886         0.361895   
     34. B(H  31,C  20)                  2.8406         0.000580   
     35. B(H  31,C  13)                  1.0881         0.362598   
     36. B(H  32,N   6)                  1.0115         0.430404   
     37. B(H  33,O   2)                  0.9714         0.498551   
     38. B(H  34,C  16)                  1.0926         0.356640   
     39. B(H  35,C  16)                  1.0909         0.358953   
     40. B(H  36,C  18)                  1.0815         0.371466   
     41. B(H  37,C  19)                  1.0799         0.373681   
     42. B(H  38,C  20)                  1.0807         0.372612   
     43. B(H  39,C  21)                  1.0793         0.374486   
     44. B(H  40,C  22)                  1.0800         0.373559   
     45. A(C   7,S   0,C   8)           93.6149         0.380059   
     46. A(C  14,O   2,H  33)          110.8509         0.374124   
     47. A(C   7,N   5,C   9)          116.6118         0.388294   
     48. A(C   7,N   5,C  11)           94.9226         0.402926   
     49. A(C   9,N   5,C  11)          130.2811         0.405314   
     50. A(C  15,N   6,H  32)          117.8943         0.358974   
     51. A(C  10,N   6,C  15)          122.8857         0.411982   
     52. A(C  10,N   6,H  32)          117.0539         0.344706   
     53. A(N   5,C   7,C  10)           88.6572         0.368604   
     54. A(N   5,C   7,H  23)          115.5948         0.334041   
     55. A(C  10,C   7,H  23)          118.3163         0.319663   
     56. A(S   0,C   7,C  10)          117.4359         0.369877   
     57. A(S   0,C   7,N   5)          105.7875         0.387385   
     58. A(S   0,C   7,H  23)          109.0980         0.335156   
     59. A(C   9,C   8,C  13)          109.8931         0.357905   
     60. A(C  12,C   8,C  13)          111.0940         0.366887   
     61. A(S   0,C   8,C   9)          104.9555         0.360625   
     62. A(S   0,C   8,C  13)          108.8084         0.368796   
     63. A(C   9,C   8,C  12)          113.2636         0.358772   
     64. A(S   0,C   8,C  12)          108.5571         0.369698   
     65. A(C  14,C   9,H  24)          109.1490         0.325039   
     66. A(C   8,C   9,H  24)          110.2842         0.318004   
     67. A(N   5,C   9,C  14)          109.4066         0.378201   
     68. A(N   5,C   9,H  24)          110.2546         0.335135   
     69. A(N   5,C   9,C   8)          105.8117         0.369581   
     70. A(C   8,C   9,C  14)          111.8934         0.358073   
     71. A(C   7,C  10,C  11)           84.2493         0.355180   
     72. A(C   7,C  10,H  25)          115.2548         0.319070   
     73. A(N   6,C  10,H  25)          108.4097         0.337038   
     74. A(C  11,C  10,H  25)          116.5604         0.321677   
     75. A(N   6,C  10,C   7)          116.3911         0.372753   
     76. A(N   6,C  10,C  11)          114.6390         0.375968   
     77. A(N   5,C  11,C  10)           91.6795         0.387854   
     78. A(O   1,C  11,C  10)          136.4477         0.436273   
     79. A(O   1,C  11,N   5)          131.8620         0.474533   
     80. A(H  27,C  12,H  28)          109.0918         0.291477   
     81. A(H  26,C  12,H  28)          108.1571         0.291672   
     82. A(H  26,C  12,H  27)          108.9138         0.291540   
     83. A(C   8,C  12,H  27)          110.2338         0.326509   
     84. A(C   8,C  12,H  26)          109.5553         0.326738   
     85. A(C   8,C  12,H  28)          110.8394         0.326663   
     86. A(H  29,C  13,H  30)          108.3174         0.291287   
     87. A(C   8,C  13,H  30)          110.1041         0.325716   
     88. A(C   8,C  13,H  29)          111.2469         0.325707   
     89. A(C   8,C  13,H  31)          109.8443         0.325820   
     90. A(H  30,C  13,H  31)          108.8147         0.291383   
     91. A(H  29,C  13,H  31)          108.4536         0.291376   
     92. A(O   3,C  14,C   9)          125.2099         0.440745   
     93. A(O   2,C  14,C   9)          111.1643         0.403159   
     94. A(O   2,C  14,O   3)          123.6252         0.487443   
     95. A(N   6,C  15,C  16)          112.9245         0.395565   
     96. A(O   4,C  15,C  16)          123.8350         0.436801   
     97. A(O   4,C  15,N   6)          123.2078         0.475872   
     98. A(C  15,C  16,H  34)          107.3176         0.324340   
     99. A(C  15,C  16,C  17)          111.7919         0.370709   
    100. A(H  34,C  16,H  35)          108.1748         0.290253   
    101. A(C  17,C  16,H  35)          111.3544         0.329906   
    102. A(C  17,C  16,H  34)          110.7722         0.329554   
    103. A(C  15,C  16,H  35)          107.2367         0.324685   
    104. A(C  16,C  17,C  18)          121.0106         0.404549   
    105. A(C  18,C  17,C  19)          118.8556         0.434846   
    106. A(C  16,C  17,C  19)          120.0460         0.404597   
    107. A(C  17,C  18,H  36)          119.7108         0.355052   
    108. A(C  17,C  18,C  20)          120.5676         0.436578   
    109. A(C  20,C  18,H  36)          119.7212         0.356425   
    110. A(C  21,C  19,H  37)          120.0586         0.357269   
    111. A(C  17,C  19,H  37)          119.3487         0.355450   
    112. A(C  17,C  19,C  21)          120.5913         0.437259   
    113. A(C  22,C  20,H  38)          120.1931         0.356702   
    114. A(C  18,C  20,H  38)          119.7234         0.356611   
    115. A(C  18,C  20,C  22)          120.0835         0.438490   
    116. A(C  22,C  21,H  39)          120.0227         0.356842   
    117. A(C  19,C  21,H  39)          119.8258         0.357399   
    118. A(C  19,C  21,C  22)          120.1508         0.438907   
    119. A(C  21,C  22,H  40)          120.1393         0.356691   
    120. A(C  20,C  22,H  40)          120.1104         0.356856   
    121. A(C  20,C  22,C  21)          119.7501         0.438394   
    122. D(H  23,C   7,S   0,C   8)   -120.5865         0.003305   
    123. D(C  10,C   7,N   5,C  11)     -5.5312         0.018206   
    124. D(C  10,C   7,N   5,C   9)   -145.7932         0.018206   
    125. D(S   0,C   7,N   5,C  11)    112.6539         0.018206   
    126. D(C  10,C   7,S   0,C   8)    101.2262         0.003305   
    127. D(H  23,C   7,N   5,C   9)     93.2184         0.018206   
    128. D(S   0,C   7,N   5,C   9)    -27.6081         0.018206   
    129. D(N   5,C   7,S   0,C   8)      4.3721         0.003305   
    130. D(C   9,C   8,S   0,C   7)     16.0092         0.002882   
    131. D(C  13,C   8,S   0,C   7)   -101.5743         0.002882   
    132. D(C  12,C   8,S   0,C   7)    137.4021         0.002882   
    133. D(C   8,C   9,N   5,C  11)    -82.8355         0.019498   
    134. D(C  14,C   9,C   8,C  13)   -156.3888         0.009099   
    135. D(C  14,C   9,N   5,C   7)    -80.1471         0.019498   
    136. D(C  14,C   9,N   5,C  11)    156.4570         0.019498   
    137. D(C   8,C   9,N   5,C   7)     40.5604         0.019498   
    138. D(N   5,C   9,C   8,C  13)     84.5343         0.009099   
    139. D(C  14,C   9,C   8,S   0)     86.7685         0.009099   
    140. D(C  14,C   9,C   8,C  12)    -31.4865         0.009099   
    141. D(N   5,C   9,C   8,C  12)   -150.5634         0.009099   
    142. D(N   5,C   9,C   8,S   0)    -32.3084         0.009099   
    143. D(H  24,C   9,N   5,C   7)    159.8063         0.019498   
    144. D(C  11,C  10,C   7,S   0)   -102.1835         0.009402   
    145. D(N   6,C  10,C   7,S   0)     12.5114         0.009402   
    146. D(N   6,C  10,C   7,H  23)   -121.7935         0.009402   
    147. D(C  11,C  10,N   6,H  32)     46.9190         0.020810   
    148. D(C  11,C  10,N   6,C  15)   -150.1837         0.020810   
    149. D(N   6,C  10,C   7,N   5)    119.6369         0.009402   
    150. D(H  25,C  10,N   6,C  15)    -18.0298         0.020810   
    151. D(C   7,C  10,N   6,C  15)    113.8163         0.020810   
    152. D(C   7,C  10,N   6,H  32)    -49.0810         0.020810   
    153. D(C  11,C  10,C   7,H  23)    123.5116         0.009402   
    154. D(C  11,C  10,C   7,N   5)      4.9420         0.009402   
    155. D(N   5,C  11,C  10,C   7)     -5.1824         0.009658   
    156. D(N   5,C  11,C  10,N   6)   -121.6251         0.009658   
    157. D(O   1,C  11,C  10,H  25)    -70.9324         0.009658   
    158. D(O   1,C  11,C  10,C   7)    173.6602         0.009658   
    159. D(O   1,C  11,C  10,N   6)     57.2175         0.009658   
    160. D(C  10,C  11,N   5,C   9)    137.0594         0.027945   
    161. D(C  10,C  11,N   5,C   7)      5.5809         0.027945   
    162. D(O   1,C  11,N   5,C   9)    -41.8698         0.027945   
    163. D(O   1,C  11,N   5,C   7)   -173.3483         0.027945   
    164. D(H  27,C  12,C   8,C  13)     67.5855         0.011917   
    165. D(H  27,C  12,C   8,C   9)    -56.6655         0.011917   
    166. D(H  27,C  12,C   8,S   0)   -172.8100         0.011917   
    167. D(H  26,C  12,C   8,C  13)    -52.2518         0.011917   
    168. D(H  26,C  12,C   8,C   9)   -176.5027         0.011917   
    169. D(H  26,C  12,C   8,S   0)     67.3527         0.011917   
    170. D(H  30,C  13,C   8,C  12)    -52.7916         0.011599   
    171. D(H  30,C  13,C   8,C   9)     73.3497         0.011599   
    172. D(H  30,C  13,C   8,S   0)   -172.2460         0.011599   
    173. D(H  29,C  13,C   8,C  12)   -172.8841         0.011599   
    174. D(H  29,C  13,C   8,C   9)    -46.7428         0.011599   
    175. D(H  29,C  13,C   8,S   0)     67.6614         0.011599   
    176. D(O   3,C  14,C   9,C   8)    -85.5707         0.010915   
    177. D(O   3,C  14,C   9,N   5)     31.3602         0.010915   
    178. D(O   2,C  14,C   9,H  24)    -27.6454         0.010915   
    179. D(O   2,C  14,C   9,C   8)     94.7019         0.010915   
    180. D(O   2,C  14,C   9,N   5)   -148.3672         0.010915   
    181. D(C   9,C  14,O   2,H  33)    179.9554         0.035372   
    182. D(O   3,C  14,O   2,H  33)      0.2229         0.035372   
    183. D(O   4,C  15,N   6,H  32)    172.2950         0.031829   
    184. D(O   4,C  15,N   6,C  10)      9.5328         0.031829   
    185. D(C  16,C  15,N   6,H  32)     -9.7151         0.031829   
    186. D(C  16,C  15,N   6,C  10)   -172.4774         0.031829   
    187. D(H  35,C  16,C  15,O   4)    -23.0605         0.010635   
    188. D(H  34,C  16,C  15,N   6)    -85.0065         0.010635   
    189. D(H  34,C  16,C  15,O   4)     92.9687         0.010635   
    190. D(C  17,C  16,C  15,N   6)     36.6445         0.010635   
    191. D(C  17,C  16,C  15,O   4)   -145.3803         0.010635   
    192. D(C  19,C  17,C  16,H  34)   -164.6991         0.012787   
    193. D(C  19,C  17,C  16,C  15)     75.6632         0.012787   
    194. D(C  18,C  17,C  16,H  35)    139.1768         0.012787   
    195. D(C  18,C  17,C  16,H  34)     18.7461         0.012787   
    196. D(C  18,C  17,C  16,C  15)   -100.8916         0.012787   
    197. D(H  36,C  18,C  17,C  19)    179.8545         0.026863   
    198. D(H  36,C  18,C  17,C  16)     -3.5505         0.026863   
    199. D(C  20,C  18,C  17,C  19)      0.0920         0.026863   
    200. D(C  20,C  18,C  17,C  16)    176.6870         0.026863   
    201. D(H  37,C  19,C  17,C  18)    179.6524         0.026902   
    202. D(H  37,C  19,C  17,C  16)      3.0237         0.026902   
    203. D(C  21,C  19,C  17,C  18)      0.0814         0.026902   
    204. D(C  21,C  19,C  17,C  16)   -176.5473         0.026902   
    205. D(H  38,C  20,C  18,H  36)     -0.0867         0.030647   
    206. D(H  38,C  20,C  18,C  17)    179.6758         0.030647   
    207. D(C  22,C  20,C  18,H  36)    179.9000         0.030647   
    208. D(C  22,C  20,C  18,C  17)     -0.3375         0.030647   
    209. D(H  39,C  21,C  19,H  37)      0.1217         0.028679   
    210. D(H  39,C  21,C  19,C  17)    179.6896         0.028679   
    211. D(C  22,C  21,C  19,H  37)   -179.5776         0.028679   
    212. D(C  22,C  21,C  19,C  17)     -0.0097         0.028679   
    213. D(H  40,C  22,C  21,H  39)      0.2111         0.028122   
    214. D(H  40,C  22,C  21,C  19)    179.9098         0.028122   
    215. D(C  20,C  22,C  21,H  39)   -179.9339         0.028122   
    216. D(C  20,C  22,C  21,C  19)     -0.2352         0.028122   
    217. D(H  40,C  22,C  20,H  38)      0.2492         0.030745   
    218. D(H  40,C  22,C  20,C  18)   -179.7375         0.030745   
    219. D(C  21,C  22,C  20,H  38)   -179.6059         0.030745   
    220. D(C  21,C  22,C  20,C  18)      0.4075         0.030745   
    -----------------------------------------------------------------

Number of atoms                         .... 41
Number of degrees of freedom            .... 220


         *************************************************************
         *                GEOMETRY OPTIMIZATION CYCLE   1            *
         *************************************************************
---------------------------------
CARTESIAN COORDINATES (ANGSTROEM)
---------------------------------
  S     -0.455213   -0.678303   -0.990430
  O     -1.120491    2.273184    2.149305
  O     -4.837849   -0.727649    0.144577
  O     -3.803029    0.257403   -1.570342
  O      2.460548    3.060817   -1.013797
  N     -1.869686    1.163740    0.219626
  N      1.296167    1.544776    0.190113
  C     -0.948698    1.079178   -0.887102
  C     -1.620866   -1.207492    0.364083
  C     -2.619258   -0.019547    0.522903
  C      0.000197    2.046100   -0.123850
  C     -1.032606    1.914090    1.012737
  C     -2.293194   -2.504921   -0.055633
  C     -0.826328   -1.392891    1.651573
  C     -3.795680   -0.133803   -0.438341
  C      2.434639    2.049277   -0.354872
  C      3.675411    1.230560   -0.004568
  C      3.378191   -0.239932    0.040664
  C      3.188270   -0.895646    1.252432
  C      3.217869   -0.954585   -1.141483
  C      2.847333   -2.237347    1.281193
  C      2.873982   -2.293302   -1.113183
  C      2.685411   -2.937629    0.098192
  H     -1.342166    1.396122   -1.851892
  H     -2.996535    0.023855    1.547633
  H      0.112266    3.037023   -0.569215
  H     -1.555589   -3.303164   -0.087998
  H     -3.071953   -2.772769    0.656136
  H     -2.733494   -2.409916   -1.045698
  H     -0.447535   -0.441756    2.021850
  H     -1.458336   -1.832470    2.421305
  H      0.019126   -2.053906    1.471939
  H      1.343688    0.633182    0.625746
  H     -5.585350   -0.797491   -0.471918
  H      4.034717    1.583284    0.965134
  H      4.435514    1.459351   -0.752827
  H      3.311711   -0.353758    2.180252
  H      3.357870   -0.451939   -2.086988
  H      2.708192   -2.734615    2.230552
  H      2.747832   -2.834822   -2.038283
  H      2.415339   -3.983099    0.120057

----------------------------
CARTESIAN COORDINATES (A.U.)
----------------------------
  NO LB      ZA    FRAG     MASS         X           Y           Z
   0 S    16.0000    0    32.060   -0.860228   -1.281807   -1.871641
   1 O     8.0000    0    15.999   -2.117421    4.295696    4.061597
   2 O     8.0000    0    15.999   -9.142210   -1.375057    0.273211
   3 O     8.0000    0    15.999   -7.186684    0.486421   -2.967516
   4 O     8.0000    0    15.999    4.649762    5.784106   -1.915800
   5 N     7.0000    0    14.007   -3.533195    2.199150    0.415033
   6 N     7.0000    0    14.007    2.449401    2.919204    0.359261
   7 C     6.0000    0    12.011   -1.792780    2.039351   -1.676380
   8 C     6.0000    0    12.011   -3.062993   -2.281829    0.688018
   9 C     6.0000    0    12.011   -4.949680   -0.036938    0.988144
  10 C     6.0000    0    12.011    0.000372    3.866569   -0.234043
  11 C     6.0000    0    12.011   -1.951343    3.617106    1.913795
  12 C     6.0000    0    12.011   -4.333509   -4.733615   -0.105130
  13 C     6.0000    0    12.011   -1.561534   -2.632182    3.121021
  14 C     6.0000    0    12.011   -7.172796   -0.252851   -0.828344
  15 C     6.0000    0    12.011    4.600801    3.872572   -0.670611
  16 C     6.0000    0    12.011    6.945520    2.325422   -0.008633
  17 C     6.0000    0    12.011    6.383856   -0.453406    0.076844
  18 C     6.0000    0    12.011    6.024957   -1.692525    2.366753
  19 C     6.0000    0    12.011    6.080891   -1.803904   -2.157090
  20 C     6.0000    0    12.011    5.380680   -4.227973    2.421104
  21 C     6.0000    0    12.011    5.431039   -4.333713   -2.103611
  22 C     6.0000    0    12.011    5.074691   -5.551314    0.185556
  23 H     1.0000    0     1.008   -2.536326    2.638288   -3.499569
  24 H     1.0000    0     1.008   -5.662631    0.045080    2.924603
  25 H     1.0000    0     1.008    0.212152    5.739142   -1.075661
  26 H     1.0000    0     1.008   -2.939637   -6.242075   -0.166291
  27 H     1.0000    0     1.008   -5.805150   -5.239774    1.239918
  28 H     1.0000    0     1.008   -5.165555   -4.554081   -1.976082
  29 H     1.0000    0     1.008   -0.845719   -0.834797    3.820743
  30 H     1.0000    0     1.008   -2.755856   -3.462866    4.575604
  31 H     1.0000    0     1.008    0.036143   -3.881319    2.781562
  32 H     1.0000    0     1.008    2.539202    1.196541    1.182488
  33 H     1.0000    0     1.008  -10.554782   -1.507040   -0.891795
  34 H     1.0000    0     1.008    7.624510    2.991974    1.823838
  35 H     1.0000    0     1.008    8.381907    2.757774   -1.422637
  36 H     1.0000    0     1.008    6.258227   -0.668505    4.120079
  37 H     1.0000    0     1.008    6.345454   -0.854041   -3.943836
  38 H     1.0000    0     1.008    5.117741   -5.167673    4.215133
  39 H     1.0000    0     1.008    5.192650   -5.357038   -3.851796
  40 H     1.0000    0     1.008    4.564329   -7.526966    0.226876

--------------------------------
INTERNAL COORDINATES (ANGSTROEM)
--------------------------------
 S      0   0   0     0.000000000000     0.00000000     0.00000000
 O      1   0   0     4.360252997158     0.00000000     0.00000000
 O      1   2   0     4.527490941598    71.28643920     0.00000000
 O      3   1   2     2.232067886779    49.74421324    99.38955885
 O      1   2   3     4.741648089077    64.12457222   150.96771886
 N      2   1   3     2.348578331750    30.37471472   323.45528065
 N      5   1   2     2.259106618850    31.92269044    37.28393197
 C      6   2   1     1.442295563966   117.03085161   311.35053163
 C      1   2   3     1.863731037814    64.75032276   319.75480162
 C      6   2   1     1.433179418751   112.51938002    90.45656429
 C      7   5   1     1.424583012435    96.61956067   290.38707287
 C      2   1   3     1.195181614922    25.92537779   267.54270470
 C      9   1   2     1.520364584610   108.55708320   170.12133531
 C      9   1   2     1.524235520685   108.80844428   291.14494809
 C      4   3   1     1.197715494647    29.83557662   329.15842515
 C      5   1   2     1.207504287253    47.43103233    79.18027000
 C     16   5   1     1.527260807645   123.83500198   137.68899658
 C     17  16   5     1.500910518424   111.79191771   214.61973375
 C     18  17  16     1.390831593640   121.01063550   259.10839158
 C     18  17  16     1.390648619807   120.04603428    75.66317048
 C     19  18  17     1.384639594448   120.56760664   176.68696200
 C     20  18  17     1.382469661418   120.59130492   183.45270750
 C     21  19  18     1.384234438097   120.08346732   359.66253926
 H      8   6   2     1.089077733869   115.59479030   230.65541038
 H     10   6   2     1.092837243650   110.25455184    20.51737374
 H     11   7   5     1.092171156952   108.40965804   346.24623067
 H     13   9   1     1.087336431981   109.55527675    67.35272722
 H     13   9   1     1.088495861550   110.23382401   187.18998155
 H     13   9   1     1.087712620322   110.83938371   308.07412564
 H     14   9   1     1.088690489433   111.24691410    67.66143236
 H     14   9   1     1.088646481282   110.10413369   187.75400262
 H     14   9   1     1.088118408272   109.84430538   307.56981254
 H      7   5   1     1.011453398232   144.10917122    90.67754646
 H      3   1   2     0.971443119820   125.91225898   138.71459731
 H     17  16   5     1.092628477872   107.31755763    92.96868386
 H     17  16   5     1.090868197061   107.23671706   336.93945500
 H     19  18  17     1.081540677610   119.71077823   356.44948028
 H     20  18  17     1.079922676034   119.34866225     3.02368775
 H     21  19  18     1.080702638409   119.72343338   179.67583087
 H     22  20  18     1.079336714381   119.82581043   179.68960153
 H     23  21  19     1.080011335264   120.11041640   180.26253108

---------------------------
INTERNAL COORDINATES (A.U.)
---------------------------
 S      0   0   0     0.000000000000     0.00000000     0.00000000
 O      1   0   0     8.239684039237     0.00000000     0.00000000
 O      1   2   0     8.555717953429    71.28643920     0.00000000
 O      3   1   2     4.217997018333    49.74421324    99.38955885
 O      1   2   3     8.960416311787    64.12457222   150.96771886
 N      2   1   3     4.438169851070    30.37471472   323.45528065
 N      5   1   2     4.269092816955    31.92269044    37.28393197
 C      6   2   1     2.725543620066   117.03085161   311.35053163
 C      1   2   3     3.521941248756    64.75032276   319.75480162
 C      6   2   1     2.708316602213   112.51938002    90.45656429
 C      7   5   1     2.692071748539    96.61956067   290.38707287
 C      2   1   3     2.258565932501    25.92537779   267.54270470
 C      9   1   2     2.873072688625   108.55708320   170.12133531
 C      9   1   2     2.880387697689   108.80844428   291.14494809
 C      4   3   1     2.263354271237    29.83557662   329.15842515
 C      5   1   2     2.281852408445    47.43103233    79.18027000
 C     16   5   1     2.886104661520   123.83500198   137.68899658
 C     17  16   5     2.836309831343   111.79191771   214.61973375
 C     18  17  16     2.628290810384   121.01063550   259.10839158
 C     18  17  16     2.627945039951   120.04603428    75.66317048
 C     19  18  17     2.616589627690   120.56760664   176.68696200
 C     20  18  17     2.612489048536   120.59130492   183.45270750
 C     21  19  18     2.615823993146   120.08346732   359.66253926
 H      8   6   2     2.058058655563   115.59479030   230.65541038
 H     10   6   2     2.065163099449   110.25455184    20.51737374
 H     11   7   5     2.063904378008   108.40965804   346.24623067
 H     13   9   1     2.054768071879   109.55527675    67.35272722
 H     13   9   1     2.056959076235   110.23382401   187.18998155
 H     13   9   1     2.055478964819   110.83938371   308.07412564
 H     14   9   1     2.057326869633   111.24691410    67.66143236
 H     14   9   1     2.057243706281   110.10413369   187.75400262
 H     14   9   1     2.056245792912   109.84430538   307.56981254
 H      7   5   1     1.911369919882   144.10917122    90.67754646
 H      3   1   2     1.835761451141   125.91225898   138.71459731
 H     17  16   5     2.064768589301   107.31755763    92.96868386
 H     17  16   5     2.061442140649   107.23671706   336.93945500
 H     19  18  17     2.043815683378   119.71077823   356.44948028
 H     20  18  17     2.040758103515   119.34866225     3.02368775
 H     21  19  18     2.042232018799   119.72343338   179.67583087
 H     22  20  18     2.039650796467   119.82581043   179.68960153
 H     23  21  19     2.040925645179   120.11041640   180.26253108

---------------------
BASIS SET INFORMATION
---------------------
There are 5 groups of distinct atoms

 Group   1 Type S   : 14s9p1d contracted to 5s4p1d pattern {73211/6111/1}
 Group   2 Type O   : 11s6p2d contracted to 5s3p2d pattern {62111/411/11}
 Group   3 Type N   : 11s6p1d contracted to 5s3p1d pattern {62111/411/1}
 Group   4 Type C   : 11s6p1d contracted to 5s3p1d pattern {62111/411/1}
 Group   5 Type H   : 5s contracted to 3s pattern {311}

Atom   0S    basis set group =>   1
Atom   1O    basis set group =>   2
Atom   2O    basis set group =>   2
Atom   3O    basis set group =>   2
Atom   4O    basis set group =>   2
Atom   5N    basis set group =>   3
Atom   6N    basis set group =>   3
Atom   7C    basis set group =>   4
Atom   8C    basis set group =>   4
Atom   9C    basis set group =>   4
Atom  10C    basis set group =>   4
Atom  11C    basis set group =>   4
Atom  12C    basis set group =>   4
Atom  13C    basis set group =>   4
Atom  14C    basis set group =>   4
Atom  15C    basis set group =>   4
Atom  16C    basis set group =>   4
Atom  17C    basis set group =>   4
Atom  18C    basis set group =>   4
Atom  19C    basis set group =>   4
Atom  20C    basis set group =>   4
Atom  21C    basis set group =>   4
Atom  22C    basis set group =>   4
Atom  23H    basis set group =>   5
Atom  24H    basis set group =>   5
Atom  25H    basis set group =>   5
Atom  26H    basis set group =>   5
Atom  27H    basis set group =>   5
Atom  28H    basis set group =>   5
Atom  29H    basis set group =>   5
Atom  30H    basis set group =>   5
Atom  31H    basis set group =>   5
Atom  32H    basis set group =>   5
Atom  33H    basis set group =>   5
Atom  34H    basis set group =>   5
Atom  35H    basis set group =>   5
Atom  36H    basis set group =>   5
Atom  37H    basis set group =>   5
Atom  38H    basis set group =>   5
Atom  39H    basis set group =>   5
Atom  40H    basis set group =>   5
---------------------------------
AUXILIARY/J BASIS SET INFORMATION
---------------------------------
There are 5 groups of distinct atoms

 Group   1 Type S   : 14s5p5d2f1g contracted to 8s4p3d1f1g pattern {71111111/2111/311/2/1}
 Group   2 Type O   : 8s3p3d contracted to 6s3p3d pattern {311111/111/111}
 Group   3 Type N   : 8s3p3d contracted to 6s3p3d pattern {311111/111/111}
 Group   4 Type C   : 8s3p3d contracted to 6s3p3d pattern {311111/111/111}
 Group   5 Type H   : 5s2p contracted to 3s1p pattern {311/2}

Atom   0S    basis set group =>   1
Atom   1O    basis set group =>   2
Atom   2O    basis set group =>   2
Atom   3O    basis set group =>   2
Atom   4O    basis set group =>   2
Atom   5N    basis set group =>   3
Atom   6N    basis set group =>   3
Atom   7C    basis set group =>   4
Atom   8C    basis set group =>   4
Atom   9C    basis set group =>   4
Atom  10C    basis set group =>   4
Atom  11C    basis set group =>   4
Atom  12C    basis set group =>   4
Atom  13C    basis set group =>   4
Atom  14C    basis set group =>   4
Atom  15C    basis set group =>   4
Atom  16C    basis set group =>   4
Atom  17C    basis set group =>   4
Atom  18C    basis set group =>   4
Atom  19C    basis set group =>   4
Atom  20C    basis set group =>   4
Atom  21C    basis set group =>   4
Atom  22C    basis set group =>   4
Atom  23H    basis set group =>   5
Atom  24H    basis set group =>   5
Atom  25H    basis set group =>   5
Atom  26H    basis set group =>   5
Atom  27H    basis set group =>   5
Atom  28H    basis set group =>   5
Atom  29H    basis set group =>   5
Atom  30H    basis set group =>   5
Atom  31H    basis set group =>   5
Atom  32H    basis set group =>   5
Atom  33H    basis set group =>   5
Atom  34H    basis set group =>   5
Atom  35H    basis set group =>   5
Atom  36H    basis set group =>   5
Atom  37H    basis set group =>   5
Atom  38H    basis set group =>   5
Atom  39H    basis set group =>   5
Atom  40H    basis set group =>   5


           ************************************************************
           *        Program running with 16 parallel MPI-processes    *
           *              working on a common directory               *
           ************************************************************
------------------------------------------------------------------------------
                             ORCA STARTUP CALCULATIONS
                           -- RI-GTO INTEGRALS CHOSEN --
------------------------------------------------------------------------------
------------------------------------------------------------------------------
                   ___                                                        
                  /   \      - P O W E R E D   B Y -                         
                 /     \                                                     
                 |  |  |   _    _      __       _____    __    __             
                 |  |  |  | |  | |    /  \     |  _  \  |  |  /  |          
                  \  \/   | |  | |   /    \    | | | |  |  | /  /          
                 / \  \   | |__| |  /  /\  \   | |_| |  |  |/  /          
                |  |  |   |  __  | /  /__\  \  |    /   |      \           
                |  |  |   | |  | | |   __   |  |    \   |  |\   \          
                \     /   | |  | | |  |  |  |  | |\  \  |  | \   \       
                 \___/    |_|  |_| |__|  |__|  |_| \__\ |__|  \__/        
                                                                              
                      - O R C A' S   B I G   F R I E N D -                    
                                      &                                       
                       - I N T E G R A L  F E E D E R -                       
                                                                              
 v1 FN, 2020, v2 2021, v3 2022-2024                                           
------------------------------------------------------------------------------


----------------------
SHARK INTEGRAL PACKAGE
----------------------

Number of atoms                             ...     41
Number of basis functions                   ...    514
Number of shells                            ...    266
Maximum angular momentum                    ...      2
Integral batch strategy                     ... SHARK/LIBINT Hybrid
RI-J (if used) integral strategy            ... SPLIT-RIJ (Revised 2003 algorithm where possible)
Printlevel                                  ...      1
Contraction scheme used                     ... SEGMENTED contraction
Prescreening option                         ... SCHWARTZ
   Thresh                                   ... 2.500e-11
   Tcut                                     ... 2.500e-12
   Tpresel                                  ... 2.500e-12 
Coulomb Range Separation                    ... NOT USED
Exchange Range Separation                   ... NOT USED
Multipole approximations                    ... NOT USED
Finite Nucleus Model                        ... NOT USED
CABS basis                                  ... NOT available
Auxiliary Coulomb fitting basis             ... AVAILABLE
   # of basis functions in Aux-J            ...    819
   # of shells in Aux-J                     ...    353
   Maximum angular momentum in Aux-J        ...      4
Auxiliary J/K fitting basis                 ... NOT available
Auxiliary Correlation fitting basis         ... NOT available
Auxiliary 'external' fitting basis          ... NOT available

Checking pre-screening integrals            ... done (  0.0 sec) Dimension = 266
Check shell pair data                       ... done (  0.0 sec)
Shell pair information
Shell pair cut-off parameter TPreSel        ...   2.5e-12
Total number of shell pairs                 ...     35511
Shell pairs after pre-screening             ...     26953
Total number of primitive shell pairs       ...    132933
Primitive shell pairs kept                  ...     62885
          la=0 lb=0:  10182 shell pairs
          la=1 lb=0:   9541 shell pairs
          la=1 lb=1:   2199 shell pairs
          la=2 lb=0:   3198 shell pairs
          la=2 lb=1:   1556 shell pairs
          la=2 lb=2:    277 shell pairs

Calculating one electron integrals          ... done (  0.0 sec)
Calculating RI/J V-Matrix + Cholesky decomp.... done (  0.0 sec)
Calculating Nuclear repulsion               ... done (  0.0 sec) ENN=   2234.483679003918 Eh

Diagonalization of the overlap matrix:
Smallest eigenvalue                        ... 7.975e-06
Time for diagonalization                   ...    0.045 sec
Threshold for overlap eigenvalues          ... 1.000e-07
Number of eigenvalues below threshold      ... 0
Time for construction of square roots      ...    0.014 sec
Total time needed                          ...    0.061 sec

-------------------
DFT GRID GENERATION
-------------------

General Integration Accuracy     IntAcc      ... 4.959
Radial Grid Type                 RadialGrid  ... OptM3 with GC (2021)
Angular Grid (max. ang.)         AngularGrid ... 6 (Lebedev-590)
Angular grid pruning method      GridPruning ... 4 (adaptive)
Weight generation scheme         WeightScheme... mBecke (2022)
Basis function cutoff            BFCut       ... 1.0000e-11
Integration weight cutoff        WCut        ... 1.0000e-14
Partially contracted basis set               ... off
Rotationally invariant grid construction     ... off
Angular grids for H and He will be reduced by one unit
Diffuse basis detected: some atoms will have their outermost
                        angular grid increased by 1.

Total number of grid points                  ...   480284
Total number of batches                      ...     7525
Average number of points per batch           ...       63
Average number of grid points per atom       ...    11714
Initializing property integral containers    ... done (  0.0 sec)

SHARK setup successfully completed in   4.1 seconds

Maximum memory used throughout the entire STARTUP-calculation: 119.7 MB


           ************************************************************
           *        Program running with 16 parallel MPI-processes    *
           *              working on a common directory               *
           ************************************************************
-------------------------------------------------------------------------------
                                 ORCA GUESS
                   Start orbitals & Density for SCF / CASSCF
-------------------------------------------------------------------------------

------------
SCF SETTINGS
------------
Hamiltonian:
 Density Functional     Method          .... DFT(GTOs)
 Exchange Functional    Exchange        .... B973C
 Correlation Functional Correlation     .... B973C
 Gradients option       PostSCFGGA      .... off
 RI-approximation to the Coulomb term is turned on
   Number of AuxJ basis functions       .... 819


General Settings:
 Integral files         IntName         .... m1_00_Penicilin-GitHubGFN2-B97-3C-TZ
 Hartree-Fock type      HFTyp           .... RHF
 Total Charge           Charge          ....    0
 Multiplicity           Mult            ....    1
 Number of Electrons    NEL             ....  176
 Basis Dimension        Dim             ....  514
 Nuclear Repulsion      ENuc            ....   2234.4836790039 Eh

Convergence Acceleration:
 AO-DIIS                CNVDIIS         .... on
   Start iteration      DIISMaxIt       ....    12
   Startup error        DIISStart       ....  0.200000
   # of expansion vecs  DIISMaxEq       ....     5
   Bias factor          DIISBfac        ....   1.050
   Max. coefficient     DIISMaxC        ....  10.000
 MO-DIIS                CNVKDIIS        .... off
 Trust-Rad. Augm. Hess. CNVTRAH         .... off
 SOSCF                  CNVSOSCF        .... on
   Start iteration      SOSCFMaxIt      ....   150
   Startup grad/error   SOSCFStart      ....  0.003300
   Hessian update       SOSCFHessUp     .... L-BFGS
 Level Shifting         CNVShift        .... on
   Level shift para.    LevelShift      ....    0.2500
   Turn off err/grad.   ShiftErr        ....    0.0010
 Zerner damping         CNVZerner       .... off
 Static damping         CNVDamp         .... on
   Fraction old density DampFac         ....    0.7000
   Max. Damping (<1)    DampMax         ....    0.9800
   Min. Damping (>=0)   DampMin         ....    0.0000
   Turn off err/grad.   DampErr         ....    0.1000

SCF Procedure:
 Maximum # iterations   MaxIter         ....   800
 SCF integral mode      SCFMode         .... Direct
   Integral package                     .... SHARK and LIBINT hybrid scheme
 Reset frequency        DirectResetFreq ....    20
 Integral Threshold     Thresh          ....  2.500e-11 Eh
 Primitive CutOff       TCut            ....  2.500e-12 Eh

Convergence Tolerance:
 Convergence Check Mode ConvCheckMode   .... Total+1el-Energy
 Convergence forced     ConvForced      .... 0
 Energy Change          TolE            ....  1.000e-08 Eh
 1-El. energy change                    ....  1.000e-05 Eh
 Orbital Gradient       TolG            ....  1.000e-05
 Orbital Rotation angle TolX            ....  1.000e-05
 DIIS Error             TolErr          ....  5.000e-07

--------------------------------
INITIAL GUESS: MINIMAL BASIS EHT
--------------------------------
The minimal basis has 137 functions
EHT matrix was diagonalized
Basis set overlap was calculated now projecting the orbitals
Using GuessMode=FMatrix for the initial guess
C*T matrix was formed
Effective Fockian was calculated
Effective Fockian was diagonalized
Initial density was built
                      ------------------
                      INITIAL GUESS DONE
                      ------------------
             **** ENERGY FILE WAS UPDATED (m1_00_Penicilin-GitHubGFN2-B97-3C-TZ.en.tmp) ****
Finished Guess after   0.3 sec
Maximum memory used throughout the entire GUESS-calculation: 48.2 MB


           ************************************************************
           *        Program running with 16 parallel MPI-processes    *
           *              working on a common directory               *
           ************************************************************

-------------------------------------------------------------------------------------------
                                      ORCA LEAN-SCF
                              memory conserving SCF solver
-------------------------------------------------------------------------------------------

----------------------------------------D-I-I-S--------------------------------------------
Iteration    Energy (Eh)           Delta-E    RMSDP     MaxDP     DIISErr   Damp  Time(sec)
-------------------------------------------------------------------------------------------
               ***  Starting incremental Fock matrix formation  ***
    1    -1424.5639386636239578     0.00e+00  5.89e-03  5.61e-01  8.28e-01  0.700   1.0
    2    -1425.9488317147061025    -1.38e+00  4.19e-03  3.64e-01  5.54e-01  0.700   1.0
    3    -1426.6321359940311595    -6.83e-01  2.61e-03  1.05e-01  3.69e-01  0.700   1.0
    4    -1427.1594884198416366    -5.27e-01  1.89e-03  8.91e-02  2.48e-01  0.700   0.9
                               ***Turning on AO-DIIS***
    5    -1427.5279510372238292    -3.68e-01  1.40e-03  8.36e-02  1.68e-01  0.700   0.9
    6    -1427.7822189691673884    -2.54e-01  9.82e-04  5.48e-02  1.20e-01  0.700   0.9
    7    -1427.9617130198680570    -1.79e-01  7.18e-04  3.52e-02  8.49e-02  0.700   0.9
    8    -1428.0873770726075236    -1.26e-01  1.66e-03  8.34e-02  5.91e-02  0.000   0.9
    9    -1428.3814465581549484    -2.94e-01  1.67e-04  1.09e-02  9.82e-03  0.000   0.9
   10    -1428.3817841509412574    -3.38e-04  5.18e-05  2.75e-03  6.28e-03  0.000   0.9
                              *** Initializing SOSCF ***
---------------------------------------S-O-S-C-F--------------------------------------
Iteration    Energy (Eh)           Delta-E    RMSDP     MaxDP     MaxGrad    Time(sec)
--------------------------------------------------------------------------------------
   11    -1428.3819472809577746    -1.63e-04  2.86e-05  2.30e-03  9.42e-04     0.9
               *** Restarting incremental Fock matrix formation ***
   12    -1428.3819585109467880    -1.12e-05  4.05e-05  3.45e-03  1.69e-04     1.0
   13    -1428.3819538850025310     4.63e-06  1.58e-05  2.38e-03  4.67e-04     0.8
   14    -1428.3819593220496245    -5.44e-06  1.65e-05  1.35e-03  3.74e-05     0.8
   15    -1428.3819590712755598     2.51e-07  5.87e-06  9.31e-04  8.06e-05     0.8
   16    -1428.3819594134256477    -3.42e-07  1.12e-05  9.48e-04  1.05e-05     0.8
   17    -1428.3819593915468431     2.19e-08  3.38e-06  2.43e-04  2.56e-05     0.8
   18    -1428.3819594017199961    -1.02e-08  1.62e-05  1.33e-03  5.65e-06     0.8
   19    -1428.3819593819880538     1.97e-08  4.54e-06  8.50e-04  6.95e-06     0.8
   20    -1428.3819593619464285     2.00e-08  8.50e-06  8.72e-04  1.24e-06     0.8
                  *** Gradient check signals convergence ***

               *****************************************************
               *                     SUCCESS                       *
               *           SCF CONVERGED AFTER  20 CYCLES          *
               *****************************************************

             **** ENERGY FILE WAS UPDATED (m1_00_Penicilin-GitHubGFN2-B97-3C-TZ.en.tmp) ****

----------------
TOTAL SCF ENERGY
----------------

Total Energy       :      -1428.38195936194643 Eh          -38868.24914 eV

Components:
Nuclear Repulsion  :       2234.48367900391804 Eh           60803.39209 eV
Electronic Energy  :      -3662.86563836586447 Eh          -99671.64123 eV
One Electron Energy:      -6397.85438860680188 Eh         -174094.46871 eV
Two Electron Energy:       2734.98875024093741 Eh           74422.82748 eV

Virial components:
Potential Energy   :      -2852.67181890226811 Eh          -77625.14658 eV
Kinetic Energy     :       1424.28985954032169 Eh           38756.89744 eV
Virial Ratio       :          2.00287308078072

DFT components:
N(Alpha)           :       87.999966039133 electrons
N(Beta)            :       87.999966039133 electrons
N(Total)           :      175.999932078266 electrons
E(XC)              :     -166.758325275136 Eh       

---------------
SCF CONVERGENCE
---------------

  Last Energy change         ...   -2.0042e-08  Tolerance :   1.0000e-08
  Last MAX-Density change    ...    8.7156e-04  Tolerance :   1.0000e-07
  Last RMS-Density change    ...    8.4999e-06  Tolerance :   5.0000e-09
  Last DIIS Error            ...    9.4166e-04  Tolerance :   5.0000e-07
  Last Orbital Gradient      ...    1.2382e-06  Tolerance :   1.0000e-05
  Last Orbital Rotation      ...    4.2553e-06  Tolerance :   1.0000e-05


----------------
ORBITAL ENERGIES
----------------

  NO   OCC          E(Eh)            E(eV) 
   0   2.0000     -88.028865     -2395.3872 
   1   2.0000     -18.817537      -512.0512 
   2   2.0000     -18.753022      -510.2957 
   3   2.0000     -18.737148      -509.8637 
   4   2.0000     -18.711936      -509.1777 
   5   2.0000     -14.038166      -381.9979 
   6   2.0000     -14.019062      -381.4781 
   7   2.0000     -10.038901      -273.1724 
   8   2.0000     -10.000715      -272.1333 
   9   2.0000      -9.988316      -271.7959 
  10   2.0000      -9.973386      -271.3896 
  11   2.0000      -9.968127      -271.2465 
  12   2.0000      -9.964589      -271.1503 
  13   2.0000      -9.950950      -270.7791 
  14   2.0000      -9.914396      -269.7844 
  15   2.0000      -9.908906      -269.6350 
  16   2.0000      -9.905757      -269.5493 
  17   2.0000      -9.904630      -269.5187 
  18   2.0000      -9.904115      -269.5047 
  19   2.0000      -9.903532      -269.4888 
  20   2.0000      -9.902967      -269.4734 
  21   2.0000      -9.901830      -269.4425 
  22   2.0000      -9.901299      -269.4280 
  23   2.0000      -7.720230      -210.0781 
  24   2.0000      -5.752178      -156.5247 
  25   2.0000      -5.747546      -156.3987 
  26   2.0000      -5.738199      -156.1443 
  27   2.0000      -1.053737       -28.6736 
  28   2.0000      -0.990301       -26.9475 
  29   2.0000      -0.966259       -26.2932 
  30   2.0000      -0.965731       -26.2789 
  31   2.0000      -0.928532       -25.2666 
  32   2.0000      -0.863057       -23.4850 
  33   2.0000      -0.804173       -21.8827 
  34   2.0000      -0.791737       -21.5443 
  35   2.0000      -0.742254       -20.1978 
  36   2.0000      -0.725478       -19.7413 
  37   2.0000      -0.695176       -18.9167 
  38   2.0000      -0.684011       -18.6129 
  39   2.0000      -0.669317       -18.2130 
  40   2.0000      -0.654626       -17.8133 
  41   2.0000      -0.641422       -17.4540 
  42   2.0000      -0.598972       -16.2988 
  43   2.0000      -0.583915       -15.8891 
  44   2.0000      -0.565444       -15.3865 
  45   2.0000      -0.554283       -15.0828 
  46   2.0000      -0.541250       -14.7282 
  47   2.0000      -0.533858       -14.5270 
  48   2.0000      -0.508464       -13.8360 
  49   2.0000      -0.494051       -13.4438 
  50   2.0000      -0.482640       -13.1333 
  51   2.0000      -0.466657       -12.6984 
  52   2.0000      -0.455322       -12.3899 
  53   2.0000      -0.449066       -12.2197 
  54   2.0000      -0.441383       -12.0106 
  55   2.0000      -0.436437       -11.8760 
  56   2.0000      -0.428917       -11.6714 
  57   2.0000      -0.425743       -11.5851 
  58   2.0000      -0.413734       -11.2583 
  59   2.0000      -0.408960       -11.1284 
  60   2.0000      -0.402333       -10.9480 
  61   2.0000      -0.397253       -10.8098 
  62   2.0000      -0.393243       -10.7007 
  63   2.0000      -0.390138       -10.6162 
  64   2.0000      -0.383267       -10.4292 
  65   2.0000      -0.375584       -10.2202 
  66   2.0000      -0.371169       -10.1000 
  67   2.0000      -0.363907        -9.9024 
  68   2.0000      -0.361599        -9.8396 
  69   2.0000      -0.360515        -9.8101 
  70   2.0000      -0.352374        -9.5886 
  71   2.0000      -0.347945        -9.4681 
  72   2.0000      -0.340750        -9.2723 
  73   2.0000      -0.330566        -8.9952 
  74   2.0000      -0.327493        -8.9115 
  75   2.0000      -0.321687        -8.7535 
  76   2.0000      -0.315951        -8.5975 
  77   2.0000      -0.311385        -8.4732 
  78   2.0000      -0.305145        -8.3034 
  79   2.0000      -0.296149        -8.0586 
  80   2.0000      -0.259876        -7.0716 
  81   2.0000      -0.252276        -6.8648 
  82   2.0000      -0.242430        -6.5969 
  83   2.0000      -0.241098        -6.5606 
  84   2.0000      -0.232642        -6.3305 
  85   2.0000      -0.221605        -6.0302 
  86   2.0000      -0.211420        -5.7530 
  87   2.0000      -0.203601        -5.5403 
  88   0.0000      -0.055548        -1.5115 
  89   0.0000      -0.050175        -1.3653 
  90   0.0000      -0.048254        -1.3131 
  91   0.0000      -0.042319        -1.1516 
  92   0.0000      -0.021961        -0.5976 
  93   0.0000      -0.013362        -0.3636 
  94   0.0000      -0.000927        -0.0252 
  95   0.0000       0.010697         0.2911 
  96   0.0000       0.021793         0.5930 
  97   0.0000       0.034531         0.9396 
  98   0.0000       0.043541         1.1848 
*Only the first 10 virtual orbitals were printed.

                    ********************************
                    * MULLIKEN POPULATION ANALYSIS *
                    ********************************

-----------------------
MULLIKEN ATOMIC CHARGES
-----------------------
   0 S :   -0.006461
   1 O :   -0.334126
   2 O :   -0.500764
   3 O :   -0.366887
   4 O :   -0.418661
   5 N :    0.055244
   6 N :   -0.357238
   7 C :   -0.404704
   8 C :   -0.141048
   9 C :   -0.158992
  10 C :    0.290215
  11 C :   -0.042915
  12 C :   -0.463021
  13 C :   -0.472698
  14 C :    0.428981
  15 C :    0.323304
  16 C :   -0.569626
  17 C :   -0.067911
  18 C :   -0.112949
  19 C :   -0.049544
  20 C :   -0.187309
  21 C :   -0.152091
  22 C :   -0.164093
  23 H :    0.233456
  24 H :    0.223798
  25 H :    0.239739
  26 H :    0.188590
  27 H :    0.174691
  28 H :    0.197193
  29 H :    0.204584
  30 H :    0.163666
  31 H :    0.185762
  32 H :    0.334926
  33 H :    0.441606
  34 H :    0.214277
  35 H :    0.207472
  36 H :    0.190257
  37 H :    0.187569
  38 H :    0.161337
  39 H :    0.164188
  40 H :    0.160185
Sum of atomic charges:   -0.0000000

--------------------------------
MULLIKEN REDUCED ORBITAL CHARGES
--------------------------------
  0 S s       :     5.924809  s :     5.924809
      pz      :     3.462276  p :    10.007817
      px      :     3.510815
      py      :     3.034727
      dz2     :     0.013668  d :     0.073834
      dxz     :     0.015751
      dyz     :     0.010039
      dx2y2   :     0.020055
      dxy     :     0.014321

  1 O s       :     3.842980  s :     3.842980
      pz      :     1.335543  p :     4.465325
      px      :     1.654191
      py      :     1.475591
      dz2     :     0.013389  d :     0.025821
      dxz     :     0.004452
      dyz     :     0.005062
      dx2y2   :     0.001681
      dxy     :     0.001237

  2 O s       :     3.769858  s :     3.769858
      pz      :     1.663613  p :     4.694071
      px      :     1.320755
      py      :     1.709703
      dz2     :     0.006355  d :     0.036834
      dxz     :     0.016880
      dyz     :     0.007344
      dx2y2   :     0.001214
      dxy     :     0.005042

  3 O s       :     3.840845  s :     3.840845
      pz      :     1.318367  p :     4.494984
      px      :     1.738071
      py      :     1.438546
      dz2     :     0.012921  d :     0.031059
      dxz     :     0.004916
      dyz     :     0.010474
      dx2y2   :    -0.000630
      dxy     :     0.003378

  4 O s       :     3.847582  s :     3.847582
      pz      :     1.411938  p :     4.539715
      px      :     1.774971
      py      :     1.352806
      dz2     :     0.005089  d :     0.031364
      dxz     :     0.003105
      dyz     :     0.011723
      dx2y2   :     0.008596
      dxy     :     0.002851

  5 N s       :     3.256003  s :     3.256003
      pz      :     1.114387  p :     3.634809
      px      :     1.217697
      py      :     1.302726
      dz2     :     0.008816  d :     0.053944
      dxz     :     0.015516
      dyz     :     0.008709
      dx2y2   :     0.009990
      dxy     :     0.010912

  6 N s       :     3.349479  s :     3.349479
      pz      :     1.527125  p :     3.965770
      px      :     1.152405
      py      :     1.286240
      dz2     :     0.003869  d :     0.041989
      dxz     :     0.009191
      dyz     :     0.005513
      dx2y2   :     0.014743
      dxy     :     0.008673

  7 C s       :     3.281056  s :     3.281056
      pz      :     1.171963  p :     3.062594
      px      :     0.966995
      py      :     0.923636
      dz2     :     0.015212  d :     0.061053
      dxz     :     0.015959
      dyz     :     0.011222
      dx2y2   :     0.008465
      dxy     :     0.010195

  8 C s       :     3.123333  s :     3.123333
      pz      :     0.956582  p :     2.963719
      px      :     1.038456
      py      :     0.968680
      dz2     :     0.012268  d :     0.053997
      dxz     :     0.012220
      dyz     :     0.008245
      dx2y2   :     0.007507
      dxy     :     0.013756

  9 C s       :     3.123680  s :     3.123680
      pz      :     1.142966  p :     2.973674
      px      :     0.952916
      py      :     0.877792
      dz2     :     0.011665  d :     0.061637
      dxz     :     0.013701
      dyz     :     0.006325
      dx2y2   :     0.013925
      dxy     :     0.016020

 10 C s       :     2.749265  s :     2.749265
      pz      :     0.937007  p :     2.898850
      px      :     0.851896
      py      :     1.109946
      dz2     :     0.007247  d :     0.061671
      dxz     :     0.018955
      dyz     :     0.008357
      dx2y2   :     0.014164
      dxy     :     0.012948

 11 C s       :     3.286575  s :     3.286575
      pz      :     0.827617  p :     2.639634
      px      :     0.927729
      py      :     0.884287
      dz2     :     0.024241  d :     0.116706
      dxz     :     0.044590
      dyz     :     0.027718
      dx2y2   :     0.011167
      dxy     :     0.008990

 12 C s       :     3.209009  s :     3.209009
      pz      :     1.131450  p :     3.216069
      px      :     1.097316
      py      :     0.987302
      dz2     :     0.008360  d :     0.037943
      dxz     :     0.010110
      dyz     :     0.003666
      dx2y2   :     0.004677
      dxy     :     0.011130

 13 C s       :     3.211451  s :     3.211451
      pz      :     0.974985  p :     3.223299
      px      :     1.093954
      py      :     1.154360
      dz2     :     0.007166  d :     0.037949
      dxz     :     0.010244
      dyz     :     0.006590
      dx2y2   :     0.003777
      dxy     :     0.010172

 14 C s       :     3.058803  s :     3.058803
      pz      :     0.827611  p :     2.390134
      px      :     0.796641
      py      :     0.765881
      dz2     :     0.026282  d :     0.122082
      dxz     :     0.046244
      dyz     :     0.021345
      dx2y2   :     0.013645
      dxy     :     0.014566

 15 C s       :     3.052811  s :     3.052811
      pz      :     0.775355  p :     2.511430
      px      :     0.907302
      py      :     0.828773
      dz2     :     0.018989  d :     0.112455
      dxz     :     0.021903
      dyz     :     0.013440
      dx2y2   :     0.020622
      dxy     :     0.037501

 16 C s       :     3.334026  s :     3.334026
      pz      :     1.207504  p :     3.192332
      px      :     1.022557
      py      :     0.962270
      dz2     :     0.008037  d :     0.043268
      dxz     :     0.009255
      dyz     :     0.006368
      dx2y2   :     0.009151
      dxy     :     0.010457

 17 C s       :     3.357521  s :     3.357521
      pz      :     0.849942  p :     2.661254
      px      :     0.980307
      py      :     0.831004
      dz2     :     0.013172  d :     0.049137
      dxz     :     0.007668
      dyz     :     0.015992
      dx2y2   :     0.006651
      dxy     :     0.005653

 18 C s       :     3.013418  s :     3.013418
      pz      :     0.981863  p :     3.057761
      px      :     1.028462
      py      :     1.047436
      dz2     :     0.010900  d :     0.041771
      dxz     :     0.003896
      dyz     :     0.015341
      dx2y2   :     0.006002
      dxy     :     0.005633

 19 C s       :     2.998651  s :     2.998651
      pz      :     0.981615  p :     3.009413
      px      :     0.978811
      py      :     1.048987
      dz2     :     0.011026  d :     0.041480
      dxz     :     0.003768
      dyz     :     0.015031
      dx2y2   :     0.006002
      dxy     :     0.005652

 20 C s       :     3.138757  s :     3.138757
      pz      :     1.021762  p :     3.006555
      px      :     0.992753
      py      :     0.992040
      dz2     :     0.011431  d :     0.041997
      dxz     :     0.003943
      dyz     :     0.014572
      dx2y2   :     0.006119
      dxy     :     0.005933

 21 C s       :     3.108963  s :     3.108963
      pz      :     1.024411  p :     3.001145
      px      :     0.974365
      py      :     1.002369
      dz2     :     0.011092  d :     0.041983
      dxz     :     0.004059
      dyz     :     0.015066
      dx2y2   :     0.006122
      dxy     :     0.005644

 22 C s       :     3.132730  s :     3.132730
      pz      :     0.948531  p :     2.989654
      px      :     1.003812
      py      :     1.037311
      dz2     :     0.013301  d :     0.041709
      dxz     :     0.006881
      dyz     :     0.012024
      dx2y2   :     0.006155
      dxy     :     0.003347

 23 H s       :     0.766544  s :     0.766544

 24 H s       :     0.776202  s :     0.776202

 25 H s       :     0.760261  s :     0.760261

 26 H s       :     0.811410  s :     0.811410

 27 H s       :     0.825309  s :     0.825309

 28 H s       :     0.802807  s :     0.802807

 29 H s       :     0.795416  s :     0.795416

 30 H s       :     0.836334  s :     0.836334

 31 H s       :     0.814238  s :     0.814238

 32 H s       :     0.665074  s :     0.665074

 33 H s       :     0.558394  s :     0.558394

 34 H s       :     0.785723  s :     0.785723

 35 H s       :     0.792528  s :     0.792528

 36 H s       :     0.809743  s :     0.809743

 37 H s       :     0.812431  s :     0.812431

 38 H s       :     0.838663  s :     0.838663

 39 H s       :     0.835812  s :     0.835812

 40 H s       :     0.839815  s :     0.839815



                     *******************************
                     * LOEWDIN POPULATION ANALYSIS *
                     *******************************

----------------------
LOEWDIN ATOMIC CHARGES
----------------------
   0 S :    0.436697
   1 O :   -0.434597
   2 O :   -0.503499
   3 O :   -0.399098
   4 O :   -0.522531
   5 N :   -0.097853
   6 N :   -0.209508
   7 C :   -0.221262
   8 C :   -0.251124
   9 C :   -0.041239
  10 C :   -0.064809
  11 C :    0.231713
  12 C :   -0.423580
  13 C :   -0.428513
  14 C :    0.344393
  15 C :    0.243511
  16 C :   -0.246812
  17 C :   -0.087773
  18 C :   -0.177347
  19 C :   -0.151353
  20 C :   -0.163220
  21 C :   -0.153956
  22 C :   -0.171096
  23 H :    0.171201
  24 H :    0.209571
  25 H :    0.211124
  26 H :    0.164924
  27 H :    0.170487
  28 H :    0.171791
  29 H :    0.168262
  30 H :    0.160513
  31 H :    0.167727
  32 H :    0.295487
  33 H :    0.382388
  34 H :    0.187905
  35 H :    0.191979
  36 H :    0.169946
  37 H :    0.172556
  38 H :    0.165664
  39 H :    0.166829
  40 H :    0.164504

-------------------------------
LOEWDIN REDUCED ORBITAL CHARGES
-------------------------------
  0 S s       :     5.426438  s :     5.426438
      pz      :     3.473524  p :    10.050404
      px      :     3.510105
      py      :     3.066775
      dz2     :     0.015782  d :     0.086461
      dxz     :     0.018306
      dyz     :     0.011685
      dx2y2   :     0.024370
      dxy     :     0.016318

  1 O s       :     3.545651  s :     3.545651
      pz      :     1.503883  p :     4.655314
      px      :     1.656505
      py      :     1.494926
      dz2     :     0.081710  d :     0.233632
      dxz     :     0.064904
      dyz     :     0.057214
      dx2y2   :     0.017782
      dxy     :     0.012023

  2 O s       :     3.510471  s :     3.510471
      pz      :     1.650762  p :     4.715936
      px      :     1.371033
      py      :     1.694142
      dz2     :     0.045684  d :     0.277092
      dxz     :     0.078472
      dyz     :     0.037538
      dx2y2   :     0.059491
      dxy     :     0.055907

  3 O s       :     3.529032  s :     3.529032
      pz      :     1.481189  p :     4.608911
[...]
 67:   1085.47   0.011005   55.61  0.003164  ( 0.025990 -0.011672 -0.048498)
 68:   1098.26   0.001055    5.33  0.000300  ( 0.000813 -0.002439 -0.017120)
 69:   1127.75   0.019632   99.21  0.005432  ( 0.069415  0.021415 -0.012470)
 70:   1151.32   0.040635  205.35  0.011014  (-0.092636 -0.041813  0.026159)
 71:   1162.84   0.003499   17.68  0.000939  (-0.027724 -0.011649  0.005883)
 72:   1178.78   0.000495    2.50  0.000131  ( 0.008526 -0.002006 -0.007373)
 73:   1181.10   0.000002    0.01  0.000000  ( 0.000143 -0.000065  0.000641)
 74:   1191.02   0.005100   25.77  0.001336  (-0.031724 -0.016209 -0.008192)
 75:   1201.73   0.000171    0.86  0.000044  ( 0.003876  0.005367  0.000744)
 76:   1202.41   0.000049    0.25  0.000013  (-0.000618 -0.000501 -0.003484)
 77:   1210.18   0.002038   10.30  0.000525  ( 0.005286  0.020897 -0.007797)
 78:   1216.53   0.005610   28.35  0.001439  ( 0.030295  0.022580  0.003364)
 79:   1222.82   0.000152    0.77  0.000039  (-0.004715  0.004074  0.000173)
 80:   1243.75   0.011893   60.10  0.002984  ( 0.054499 -0.002797 -0.002433)
 81:   1273.96   0.001654    8.36  0.000405  (-0.002496 -0.016878  0.010676)
 82:   1281.59   0.000528    2.67  0.000129  (-0.008229 -0.006153  0.004788)
 83:   1294.91   0.021310  107.69  0.005136  (-0.066398 -0.026907 -0.001703)
 84:   1313.46   0.000720    3.64  0.000171  ( 0.011379 -0.005776  0.002849)
 85:   1321.61   0.018440   93.19  0.004354  ( 0.060429  0.014687  0.022061)
 86:   1336.99   0.005281   26.69  0.001233  ( 0.007680 -0.033079 -0.008915)
 87:   1355.21   0.000026    0.13  0.000006  ( 0.000588 -0.000445  0.002320)
 88:   1360.15   0.000038    0.19  0.000009  ( 0.000440  0.000383 -0.002892)
 89:   1401.48   0.005960   30.12  0.001327  ( 0.031497 -0.003558 -0.017956)
 90:   1408.03   0.002100   10.61  0.000465  (-0.017814 -0.008562 -0.008641)
 91:   1428.93   0.001096    5.54  0.000239  ( 0.004579 -0.014776  0.000044)
 92:   1466.51   0.004056   20.50  0.000863  (-0.029376 -0.000256  0.000173)
 93:   1480.54   0.001104    5.58  0.000233  ( 0.002127 -0.002303 -0.014928)
 94:   1486.00   0.000355    1.79  0.000074  ( 0.005650 -0.002825  0.005878)
 95:   1493.12   0.001269    6.41  0.000265  ( 0.014178  0.003872  0.007018)
 96:   1507.82   0.002693   13.61  0.000557  ( 0.018283 -0.014831 -0.001759)
 97:   1517.72   0.002162   10.92  0.000444  (-0.014677  0.003517  0.014720)
 98:   1524.44   0.003128   15.81  0.000640  ( 0.009308  0.023198 -0.003938)
 99:   1541.94   0.067239  339.80  0.013608  ( 0.115666  0.014752  0.003437)
100:   1613.92   0.000174    0.88  0.000034  ( 0.000901 -0.001885 -0.005416)
101:   1637.01   0.001989   10.05  0.000379  (-0.001181  0.019201 -0.003031)
102:   1731.22   0.080626  407.45  0.014533  ( 0.034150  0.113187 -0.023578)
103:   1795.15   0.044931  227.06  0.007811  ( 0.004391 -0.036114  0.080543)
104:   1828.84   0.070117  354.34  0.011964  ( 0.025219  0.054726  0.091288)
105:   2998.07   0.003911   19.76  0.000407  (-0.001061  0.009689 -0.017665)
106:   3011.54   0.005119   25.87  0.000530  (-0.011827 -0.019401  0.003765)
107:   3026.95   0.003270   16.53  0.000337  (-0.010091 -0.014721  0.004312)
108:   3068.23   0.000813    4.11  0.000083  (-0.001039 -0.002277 -0.008740)
109:   3073.30   0.000047    0.24  0.000005  (-0.000178 -0.002173 -0.000077)
110:   3076.29   0.000824    4.17  0.000084  ( 0.006738  0.005037 -0.003583)
111:   3077.05   0.002796   14.13  0.000284  (-0.016554 -0.000365  0.003063)
112:   3081.90   0.005912   29.88  0.000599  ( 0.019421 -0.001041 -0.014846)
113:   3096.43   0.002883   14.57  0.000291  (-0.006161  0.011549 -0.010919)
114:   3099.52   0.002753   13.91  0.000277  (-0.010116  0.008397 -0.010214)
115:   3109.46   0.002117   10.70  0.000212  ( 0.003785  0.013958  0.001830)
116:   3121.36   0.000919    4.64  0.000092  (-0.000485 -0.005197  0.008037)
117:   3122.67   0.000491    2.48  0.000049  ( 0.000578  0.006584  0.002323)
118:   3129.81   0.002602   13.15  0.000259  ( 0.003123  0.015481 -0.003168)
119:   3139.89   0.006824   34.48  0.000678  (-0.000495 -0.004444 -0.025655)
120:   3148.97   0.003257   16.46  0.000323  (-0.000314  0.017811 -0.002332)
121:   3521.77   0.009913   50.09  0.000878  ( 0.001405  0.029587 -0.000993)
122:   3664.46   0.010012   50.60  0.000853  (-0.028436 -0.001959 -0.006340)

* The epsilon (eps) is given for a Dirac delta lineshape.
** The dipole moment derivative (T) already includes vibrational overlap.

The first frequency considered to be a vibration is 6
The total number of vibrations considered is 117


--------------------------
THERMOCHEMISTRY AT 298.15K
--------------------------

Temperature         ...   298.15 K
Pressure            ...     1.00 atm
Total Mass          ...   334.39 AMU
Quasi RRHO          ...     True
Cut-Off Frequency   ...     1.00 cm^-1

Throughout the following assumptions are being made:
  (1) The electronic state is orbitally nondegenerate
  (2) There are no thermally accessible electronically excited states
  (3) Hindered rotations indicated by low frequency modes are not
      treated as such but are treated as vibrations and this may
      cause some error
  (4) All equations used are the standard statistical mechanics
      equations for an ideal gas
  (5) All vibrations are strictly harmonic

freq.      12.30  E(vib)   ...       0.58 
freq.      22.24  E(vib)   ...       0.56 
freq.      27.02  E(vib)   ...       0.55 
freq.      38.67  E(vib)   ...       0.54 
freq.      54.69  E(vib)   ...       0.52 
freq.      58.91  E(vib)   ...       0.51 
freq.      66.98  E(vib)   ...       0.50 
freq.      83.68  E(vib)   ...       0.48 
freq.     116.80  E(vib)   ...       0.44 
freq.     122.50  E(vib)   ...       0.43 
freq.     152.33  E(vib)   ...       0.40 
freq.     196.15  E(vib)   ...       0.36 
freq.     218.74  E(vib)   ...       0.33 
freq.     235.89  E(vib)   ...       0.32 
freq.     261.84  E(vib)   ...       0.29 
freq.     265.52  E(vib)   ...       0.29 
freq.     274.59  E(vib)   ...       0.28 
freq.     297.68  E(vib)   ...       0.27 
freq.     319.40  E(vib)   ...       0.25 
freq.     326.64  E(vib)   ...       0.24 
freq.     333.02  E(vib)   ...       0.24 
freq.     351.19  E(vib)   ...       0.23 
freq.     369.35  E(vib)   ...       0.21 
freq.     398.60  E(vib)   ...       0.19 
freq.     400.14  E(vib)   ...       0.19 
freq.     441.35  E(vib)   ...       0.17 
freq.     472.57  E(vib)   ...       0.15 
freq.     485.67  E(vib)   ...       0.15 
freq.     499.81  E(vib)   ...       0.14 
freq.     530.37  E(vib)   ...       0.13 
freq.     561.94  E(vib)   ...       0.11 
freq.     573.15  E(vib)   ...       0.11 
freq.     609.58  E(vib)   ...       0.10 
freq.     617.13  E(vib)   ...       0.09 
freq.     619.45  E(vib)   ...       0.09 
freq.     624.44  E(vib)   ...       0.09 
freq.     637.27  E(vib)   ...       0.09 
freq.     642.13  E(vib)   ...       0.09 
freq.     681.19  E(vib)   ...       0.08 
freq.     688.46  E(vib)   ...       0.07 
freq.     726.35  E(vib)   ...       0.06 
freq.     743.99  E(vib)   ...       0.06 
freq.     761.60  E(vib)   ...       0.06 
freq.     792.41  E(vib)   ...       0.05 
freq.     835.13  E(vib)   ...       0.04 
freq.     843.16  E(vib)   ...       0.04 
freq.     861.63  E(vib)   ...       0.04 
freq.     886.73  E(vib)   ...       0.04 
freq.     896.89  E(vib)   ...       0.03 
freq.     910.43  E(vib)   ...       0.03 
freq.     913.04  E(vib)   ...       0.03 
freq.     924.50  E(vib)   ...       0.03 
freq.     927.28  E(vib)   ...       0.03 
freq.     945.96  E(vib)   ...       0.03 
freq.     947.93  E(vib)   ...       0.03 
freq.     955.26  E(vib)   ...       0.03 
freq.     979.99  E(vib)   ...       0.02 
freq.    1013.29  E(vib)   ...       0.02 
freq.    1018.02  E(vib)   ...       0.02 
freq.    1038.75  E(vib)   ...       0.02 
freq.    1046.21  E(vib)   ...       0.02 
freq.    1085.47  E(vib)   ...       0.02 
freq.    1098.26  E(vib)   ...       0.02 
freq.    1127.75  E(vib)   ...       0.01 
freq.    1151.32  E(vib)   ...       0.01 
freq.    1162.84  E(vib)   ...       0.01 
freq.    1178.78  E(vib)   ...       0.01 
freq.    1181.10  E(vib)   ...       0.01 
freq.    1191.02  E(vib)   ...       0.01 
freq.    1201.73  E(vib)   ...       0.01 
freq.    1202.41  E(vib)   ...       0.01 
freq.    1210.18  E(vib)   ...       0.01 
freq.    1216.53  E(vib)   ...       0.01 
freq.    1222.82  E(vib)   ...       0.01 
freq.    1243.75  E(vib)   ...       0.01 
freq.    1273.96  E(vib)   ...       0.01 
freq.    1281.59  E(vib)   ...       0.01 
freq.    1294.91  E(vib)   ...       0.01 
freq.    1313.46  E(vib)   ...       0.01 
freq.    1321.61  E(vib)   ...       0.01 
freq.    1336.99  E(vib)   ...       0.01 
freq.    1355.21  E(vib)   ...       0.01 
freq.    1360.15  E(vib)   ...       0.01 
freq.    1401.48  E(vib)   ...       0.00 
freq.    1408.03  E(vib)   ...       0.00 
freq.    1428.93  E(vib)   ...       0.00 
freq.    1466.51  E(vib)   ...       0.00 
freq.    1480.54  E(vib)   ...       0.00 
freq.    1486.00  E(vib)   ...       0.00 
freq.    1493.12  E(vib)   ...       0.00 
freq.    1507.82  E(vib)   ...       0.00 
freq.    1517.72  E(vib)   ...       0.00 
freq.    1524.44  E(vib)   ...       0.00 
freq.    1541.94  E(vib)   ...       0.00 
freq.    1613.92  E(vib)   ...       0.00 
freq.    1637.01  E(vib)   ...       0.00 
freq.    1731.22  E(vib)   ...       0.00 
freq.    1795.15  E(vib)   ...       0.00 
freq.    1828.84  E(vib)   ...       0.00 
freq.    2998.07  E(vib)   ...       0.00 
freq.    3011.54  E(vib)   ...       0.00 
freq.    3026.95  E(vib)   ...       0.00 
freq.    3068.23  E(vib)   ...       0.00 
freq.    3073.30  E(vib)   ...       0.00 
freq.    3076.29  E(vib)   ...       0.00 
freq.    3077.05  E(vib)   ...       0.00 
freq.    3081.90  E(vib)   ...       0.00 
freq.    3096.43  E(vib)   ...       0.00 
freq.    3099.52  E(vib)   ...       0.00 
freq.    3109.46  E(vib)   ...       0.00 
freq.    3121.36  E(vib)   ...       0.00 
freq.    3122.67  E(vib)   ...       0.00 
freq.    3129.81  E(vib)   ...       0.00 
freq.    3139.89  E(vib)   ...       0.00 
freq.    3148.97  E(vib)   ...       0.00 
freq.    3521.77  E(vib)   ...       0.00 
freq.    3664.46  E(vib)   ...       0.00 

------------
INNER ENERGY
------------

The inner energy is: U= E(el) + E(ZPE) + E(vib) + E(rot) + E(trans)
    E(el)   - is the total energy from the electronic structure calculation
              = E(kin-el) + E(nuc-el) + E(el-el) + E(nuc-nuc)
    E(ZPE)  - the the zero temperature vibrational energy from the frequency calculation
    E(vib)  - the the finite temperature correction to E(ZPE) due to population
              of excited vibrational states
    E(rot)  - is the rotational thermal energy
    E(trans)- is the translational thermal energy

Summary of contributions to the inner energy U:
Electronic energy                ...  -1428.64657102 Eh
Zero point energy                ...      0.32144963 Eh     201.71 kcal/mol
Thermal vibrational correction   ...      0.01895525 Eh      11.89 kcal/mol
Thermal rotational correction    ...      0.00141627 Eh       0.89 kcal/mol
Thermal translational correction ...      0.00141627 Eh       0.89 kcal/mol
-----------------------------------------------------------------------
Total thermal energy                  -1428.30333360 Eh


Summary of corrections to the electronic energy:
(perhaps to be used in another calculation)
Total thermal correction                  0.02178779 Eh      13.67 kcal/mol
Non-thermal (ZPE) correction              0.32144963 Eh     201.71 kcal/mol
-----------------------------------------------------------------------
Total correction                          0.34323743 Eh     215.38 kcal/mol


--------
ENTHALPY
--------

The enthalpy is H = U + kB*T
                kB is Boltzmann's constant
Total thermal energy              ...  -1428.30333360 Eh 
Thermal Enthalpy correction       ...      0.00094421 Eh       0.59 kcal/mol
-----------------------------------------------------------------------
Total Enthalpy                    ...  -1428.30238939 Eh


Note: Only C1 symmetry has been detected, increase convergence thresholds 
      if your molecule has a higher symmetry. Symmetry factor of 1.0 is   
      used for the rotational entropy correction. 
 

Note: Rotational entropy computed according to Herzberg 
Infrared and Raman Spectra, Chapter V,1, Van Nostrand Reinhold, 1945 
Point Group:  C1, Symmetry Number:   1  
Rotational constants in cm-1:     0.013573     0.005901     0.004913 

Vibrational entropy computed according to the QRRHO of S. Grimme
Chem.Eur.J. 2012 18 9955 using a reference frequency of 100.0 cm-1


-------
ENTROPY
-------

The entropy contributions are T*S = T*(S(el)+S(vib)+S(rot)+S(trans))
     S(el)   - electronic entropy
     S(vib)  - vibrational entropy
     S(rot)  - rotational entropy
     S(trans)- translational entropy
The entropies will be listed as multiplied by the temperature to get
units of energy

Electronic entropy                ...      0.00000000 Eh      0.00 kcal/mol
Vibrational entropy               ...      0.03403430 Eh     21.36 kcal/mol
Rotational entropy                ...      0.01647330 Eh     10.34 kcal/mol
Translational entropy             ...      0.02058088 Eh     12.91 kcal/mol
-----------------------------------------------------------------------
Final entropy term                ...      0.07108847 Eh     44.61 kcal/mol

In case the symmetry of your molecule has not been determined correctly
or in case you have a reason to use a different symmetry number we print 
out the resulting rotational entropy values for sn=1,12:

 non-linear molecules -----------------------------------
|  sn= 1 | S(rot)=       0.01647330 Eh     10.34 kcal/mol|
|  sn= 2 | S(rot)=       0.01581884 Eh      9.93 kcal/mol|
|  sn= 3 | S(rot)=       0.01543601 Eh      9.69 kcal/mol|
|  sn= 4 | S(rot)=       0.01516438 Eh      9.52 kcal/mol|
|  sn= 5 | S(rot)=       0.01495369 Eh      9.38 kcal/mol|
|  sn= 6 | S(rot)=       0.01478155 Eh      9.28 kcal/mol|
|  sn= 7 | S(rot)=       0.01463600 Eh      9.18 kcal/mol|
|  sn= 8 | S(rot)=       0.01450993 Eh      9.11 kcal/mol|
|  sn= 9 | S(rot)=       0.01439872 Eh      9.04 kcal/mol|
|  sn=10 | S(rot)=       0.01429924 Eh      8.97 kcal/mol|
|  sn=11 | S(rot)=       0.01420925 Eh      8.92 kcal/mol|
|  sn=12 | S(rot)=       0.01412709 Eh      8.86 kcal/mol|
 linear molecules ---------------------------------------
|  Dinfh | S(rot)=       0.01034502 Eh      6.49 kcal/mol|
|  Cinfv | S(rot)=       0.01099948 Eh      6.90 kcal/mol|
 --------------------------------------------------------


-------------------
GIBBS FREE ENERGY
-------------------

The Gibbs free energy is G = H - T*S

Total enthalpy                    ...  -1428.30238939 Eh 
Total entropy correction          ...     -0.07108847 Eh    -44.61 kcal/mol
-----------------------------------------------------------------------
Final Gibbs free energy         ...  -1428.37347786 Eh

For completeness - the Gibbs free energy minus the electronic energy
G-E(el)                           ...      0.27309316 Eh    171.37 kcal/mol


Maximum memory used throughout the entire PROP-calculation: 143.2 MB

--------------------------------
SUGGESTED CITATIONS FOR THIS RUN
--------------------------------

Below you find a list of papers that are relevant to this ORCA run
We neither can nor want to force you to cite these papers, but we appreciate if you do
You receive ORCA, which is the product of decades of hard work by many enthusiastic individuals, for free
The only thing we kindly ask in return is that you cite our papers,
We deeply appreciate it, if you show your appreciation for ORCA by not just citing the generic ORCA reference.

Please note that relegating all ORCA citations to the supporting information does *not* help us.
SI sections are not indexed - citations you put there will not count into any citation statistics
But we need these citations in order to attract the funding resources that allow us to do what we are doing

Therefore, if you are a happy ORCA user, please consider citing a few of the papers listed below in the main body of your paper

In addition to the list printed below, the program has created the file m1_00_Penicilin-GitHubGFN2-B97-3C-TZ.bibtex that contains the list in bibtex format
You can import this file easily into all common literature databanks and citation aid programs


List of essential papers. We consider these as the minimum necessary citations

  1. Neese,F.
     Software update: the ORCA program system, version 5.0
     WIRES Comput. Molec. Sci., 2022 12(1)e1606
     doi.org/10.1002/wcms.1606

List of papers to cite with high priority. The work reported in these papers was absolutely
necessary for this run to complete.
Our perspective: the developers of density functionals and basis sets usually get cited in chemistry papers
Good! But without the algorithms to do something with them, the functionals or basis sets would not do anything.
Hence, in our opinion, the algorithm design and method developments papers are equally worthy of getting cited

  1. Neese,F.
     An improvement of the resolution of the identity approximation for the formation of the Coulomb matrix
     J. Comp. Chem., 2003 24(14)1740-1747
     doi.org/10.1002/jcc.10318
  2. Bykov,D.; Petrenko,T.; Izsak,R.; Kossmann,S.; Becker,U.; Valeev,E.; Neese,F.
     Efficient implementation of the analytic second derivatives of Hartree-Fock and hybrid DFT energies: a detailed analysis of different approximations
     Molec. Phys., 2015 113 1961-1977
     doi.org/10.1080/00268976.2015.1025114
  3. Neese,F.
     The SHARK Integral Generation and Digestion System
     J. Comp. Chem., 2022  1-16
     doi.org/10.1002/jcc.26942
  4. Grimme,S.; Antony,J.; Ehrlich,S.; Krieg,H.
     A consistent and accurate ab initio parametrization of density functional dispersion correction (DFT-D) for the 94 elements H-Pu
     J. Chem. Phys., 2010 132 154104
     doi.org/10.1063/1.3382344
  5. Grimme,S.; Ehrlich,S.; Goerigk,L.
     Effect of the damping function in dispersion corrected density functional theory
     J. Comput. Chem., 2011 32(7)1456-1465
     doi.org/10.1002/jcc.21759

List of suggested additional citations. These are papers that are important in the 'surrounding' of 
of this run, or papers that preceded the highly important papers. If you like your results we are grateful for a citation.

  1. Neese,F.
     The ORCA program system
     WIRES Comput. Molec. Sci., 2012 2(1)73-78
     doi.org/10.1002/wcms.81
  2. Neese,F.
     Software update: the ORCA program system, version 4.0
     WIRES Comput. Molec. Sci., 2018 8(1)1-6
     doi.org/10.1002/wcms.1327
  3. Neese,F.; Wennmohs,F.; Becker,U.; Riplinger,C.
     The ORCA quantum chemistry program package
     J. Chem. Phys., 2020 152 Art. No. L224108
     doi.org/10.1063/5.0004608

List of optional additional citations

  1. Neese,F.
     Approximate second-order SCF convergence for spin unrestricted wavefunctions
     Chem. Phys. Lett., 2000 325(1-3)93-98
     doi.org/10.1016/s0009-2614(00)00662-x

Timings for individual modules:

Sum of individual times          ...      857.931 sec (=  14.299 min)
Startup calculation              ...       96.896 sec (=   1.615 min)  11.3 %
SCF iterations                   ...      252.667 sec (=   4.211 min)  29.5 %
Property integrals               ...      141.077 sec (=   2.351 min)  16.4 %
SCF Response                     ...      166.244 sec (=   2.771 min)  19.4 %
Property calculations            ...       59.669 sec (=   0.994 min)   7.0 %
SCF Gradient evaluation          ...      140.970 sec (=   2.350 min)  16.4 %
Geometry relaxation              ...        0.408 sec (=   0.007 min)   0.0 %
                             ****ORCA TERMINATED NORMALLY****
TOTAL RUN TIME: 0 days 0 hours 14 minutes 23 seconds 853 msec
