
                                 *****************
                                 * O   R   C   A *
                                 *****************

                                            #,                                       
                                            ###                                      
                                            ####                                     
                                            #####                                    
                                            ######                                   
                                           ########,                                 
                                     ,,################,,,,,                         
                               ,,#################################,,                 
                          ,,##########################################,,             
                       ,#########################################, ''#####,          
                    ,#############################################,,   '####,        
                  ,##################################################,,,,####,       
                ,###########''''           ''''###############################       
              ,#####''   ,,,,##########,,,,          '''####'''          '####       
            ,##' ,,,,###########################,,,                        '##       
           ' ,,###''''                  '''############,,,                           
         ,,##''                                '''############,,,,        ,,,,,,###''
      ,#''                                            '''#######################'''  
     '                                                          ''''####''''         
             ,#######,   #######,   ,#######,      ##                                
            ,#'     '#,  ##    ##  ,#'     '#,    #''#        ,####,   ,####,        
            ##       ##  ##   ,#'  ##            #'  '#       #'       #'  '#        
            ##       ##  #######   ##           ,######,      #####,   #    #        
            '#,     ,#'  ##    ##  '#,     ,#' ,#      #,     #,   #   #,  ,#        
             '#######'   ##     ##  '#######'  #'      '#     '####' # '####'        



                #########################################################
                #                        -***-                          #
                #          Department of theory and spectroscopy        #
                #                                                       #
                #                      Frank Neese                      #
                #                                                       #
                #     Directorship, Architecture, Infrastructure        #
                #                    SHARK, DRIVERS                     #
                #        Core code/Algorithms in most modules           #
                #                                                       #
                #        Max Planck Institute fuer Kohlenforschung      #
                #                Kaiser Wilhelm Platz 1                 #
                #                 D-45470 Muelheim/Ruhr                 #
                #                      Germany                          #
                #                                                       #
                #                  All rights reserved                  #
                #                        -***-                          #
                #########################################################


                         Program Version 6.0.1  -  RELEASE   -


 With contributions from (in alphabetic order):
[Max-Planck-Institut fuer Kohlenforschung]                               
  Daniel Aravena         : Magnetic Suceptibility                        
  Michael Atanasov       : Ab Initio Ligand Field Theory (pilot matlab implementation)
  Alexander A. Auer      : GIAO ZORA, VPT2 properties, NMR spectrum      
  Ute Becker             : All parallelization in ORCA, NUMFREQ, NUMCALC 
  Giovanni Bistoni       : ED, misc. LED, open-shell LED, HFLD           
  Martin Brehm           : Molecular dynamics                            
  Dmytro Bykov           : pre 5.0 version of the SCF Hessian            
  Marcos Casanova-Páez   : Triplet and SCS-CIS(D). UHF-(DLPNO)-IP/EA/STEOM-CCSD. UHF-CVS-IP/STEOM-CCSD   
  Vijay G. Chilkuri      : MRCI spin determinant printing, contributions to CSF-ICE 
  Pauline Colinet        : FMM embedding                                 
  Dipayan Datta          : RHF DLPNO-CCSD density                        
  Achintya Kumar Dutta   : EOM-CC, STEOM-CC                              
  Nicolas Foglia         : Exact transition moments, OPA infrastructure, MCD improvements    
  Dmitry Ganyushin       : Spin-Orbit,Spin-Spin,Magnetic field MRCI      
  Miquel Garcia-Rates    : C-PCM and meta-GGA Hessian, CCSD/C-PCM, Gaussian charge scheme 
  Tiago L. C. Gouveia    : GS-ROHF, GS-ROCIS                             
  Yang Guo               : DLPNO-NEVPT2, F12-NEVPT2, CIM, IAO-localization        
  Andreas Hansen         : Spin unrestricted coupled pair/coupled cluster methods 
  Ingolf Harden          : AUTO-CI MPn and infrastructure                
  Benjamin Helmich-Paris : MC-RPA, TRAH-(SCF,CASSCF), AVAS, COSX integrals, SCF dyn. polar. 
  Lee Huntington         : MR-EOM, pCC                                   
  Robert Izsak           : Overlap fitted RIJCOSX, COSX-SCS-MP3, EOM     
  Riya Kayal             : Wick's Theorem for AUTO-CI, AUTO-CI UHF-CCSDT 
  Emily Kempfer          : AUTO-CI, RHF CISDT and CCSDT                  
  Christian Kollmar      : KDIIS, OOCD, Brueckner-CCSD(T), CCSD density, CASPT2, CASPT2-K, improved NEVPT2 
  Axel Koslowski         : Symmetry handling                             
  Simone Kossmann        : meta-GGA functionals, TD-DFT gradient, OOMP2, (MP2 Hessian; deprecated post 5.0) 
  Lucas Lang             : DCDCAS                                        
  Marvin Lechner         : AUTO-CI (C++ implementation), FIC-MRCC        
  Spencer Leger          : CASSCF response                               
  Dagmar Lenk            : GEPOL surface, SMD, ORCA-2-JSON               
  Dimitrios Liakos       : Extrapolation schemes; Compound Job, initial MDCI parallelization 
  Dimitrios Manganas     : Further ROCIS development; embedding schemes. LFT, Crystal Embedding 
  Dimitrios Pantazis     : SARC Basis sets                               
  Anastasios Papadopoulos: AUTO-CI, single reference methods and gradients 
  Taras Petrenko         : pre 6.0 DFT Hessian and TD-DFT gradient, (ASA, deprecated), ECA, 1-Electron XAS/XES, NRVS 
  Peter Pinski           : DLPNO-MP2, DLPNO-MP2 Gradient                 
  Christoph Reimann      : Effective Core Potentials                     
  Marius Retegan         : Local ZFS, SOC                                
  Christoph Riplinger    : Optimizer, TS searches, QM/MM, DLPNO-CCSD(T), (RO)-DLPNO pert. Triples 
  Michael Roemelt        : Original ROCIS implementation                 
  Masaaki Saitow         : Open-shell DLPNO-CCSD energy and density      
  Barbara Sandhoefer     : DKH picture change effects                    
  Kantharuban Sivalingam : CASSCF convergence/infrastructure, NEVPT2 and variants, FIC-MRCI 
  Bernardo de Souza      : ESD, SOC TD-DFT                               
  Georgi L. Stoychev     : AutoAux, RI-MP2 NMR, DLPNO-MP2 response, X2C  
  Van Anh Tran           : RI-MP2 g-tensors                              
  Willem Van den Heuvel  : Paramagnetic NMR                              
  Zikuan Wang            : NOTCH, Electric field optimization            
  Frank Wennmohs         : Technical directorship and infrastructure     
  Hang Xu                : AUTO-CI-Response properties                   
                                                                         
[FACCTs GmbH]                                                            
  Markus Bursch, Miquel Garcia-Rates, Christoph Riplinger, Bernardo de Souza, Georgi L. Stoychev 
                                                                 
  APM, Basis sets (HGBS, AHGBS, def-TZVP (Ac-Lr), def2-XVPD (La-Lu)), CI-OPT, improved COSX, DLPNO-Multilevel,           
  DOCKER, DRACO, updates on ESD, GOAT, IRC, LR-CPCM, MBIS, meta-GGA TD-DFT gradient, ML-optimized integration grids, 
  MM, NACMEs, nearIR, NEB, NEB-TS, NL-DFT gradient (VV10), 2- and 3-layer-ONIOM, interface openCOSMO-RS, QMMM,   
  Crystal-QMMM, SF, symmetry and pop. for TD-DFT, r2SCAN hybrids, SOLVATOR                                   
                                                                         
[Other institutions]                                                     
  V. Asgeirsson          : NEB                                           
  Christoph Bannwarth    : sTDA-DFT, sTD-DFT, PBEh-3c, B97-3c, D3        
  Sebastian Ehlert       : rSCAN, r2SCAN, r2SCAN-3c, D4, dhf basis sets  
  Marvin Friede          : D4 for Fr, Ra, Ac-Lr                          
  Lars Goerigk           : TD-DFT with DH, B97 family of functionals     
  Stefan Grimme          : VdW corrections, initial TS optimization, DFT functionals, gCP, sTDA/sTD-DF 
  Waldemar Hujo          : DFT-NL                                        
  H. Jonsson             : NEB                                           
  Holger Kruse           : gCP                                           
  Marcel Mueller         : wB97X-3c, vDZP basis set                      
  Hagen Neugebauer       : wr2SCAN                                       
  Tobias Risthaus        : range-separated hybrid DFT                    
  Lukas Wittmann         : regularized MP2, r2SCAN double-hybrids, wr2SCAN        
                                                                         
We gratefully acknowledge several colleagues who have allowed us to      
interface, adapt or use parts of their codes:                            
  Ed Valeev, F. Pavosevic, A. Kumar             : LibInt (2-el integral package), F12 methods 
  Garnet Chan, S. Sharma, J. Yang, R. Olivares  : DMRG                   
  Ulf Ekstrom                                   : XCFun DFT Library      
  Mihaly Kallay                                 : mrcc  (arbitrary order and MRCC methods)
  Frank Weinhold                                : gennbo (NPA and NBO analysis)           
  Simon Mueller                                 : openCOSMO-RS                            
  Christopher J. Cramer and Donald G. Truhlar   : smd solvation model                     
  S Lehtola, MJT Oliveira, MAL Marques          : LibXC Library                           
  Liviu Ungur et al                             : ANISO software                          


 Your calculation uses the libint2 library for the computation of 2-el integrals
 For citations please refer to: http://libint.valeyev.net

 Your ORCA version has been built with support for libXC version: 6.2.2
 For citations please refer to: https://libxc.gitlab.io

 This ORCA versions uses:
   CBLAS   interface :  Fast vector & matrix operations
   LAPACKE interface :  Fast linear algebra routines
   SCALAPACK package :  Parallel linear algebra routines
   Shared memory     :  Shared parallel matrices
   BLAS/LAPACK       :  OpenBLAS 0.3.27  USE64BITINT DYNAMIC_ARCH NO_AFFINITY Zen SINGLE_THREADED
        Core in use  :  Zen
   Copyright (c) 2011-2014, The OpenBLAS Project


NOTE: MaxCore=6000 MB was set to SCF,MP2,MDCI,CIPSI,MRCI and CIS
      => If you want to overwrite this, your respective input block should be placed after the MaxCore statement
Your calculation utilizes the atom-pairwise dispersion correction
with the Becke-Johnson damping scheme (D3BJ)


Your calculation employs the composite approach B97-3c by Grimme and coworkers.
For the correct reference, please check the publication list of the Grimme group:
http://www.thch.uni-bonn.de/tc/index.php?section=publikationen&subsection=grimme#2017
   

XCFun DFT library Copyright 2009-2010 Ulf Ekstrom and contributors.
See http://admol.org/xcfun for more information.
This is free software; see the source code for copying conditions.
There is ABSOLUTELY NO WARRANTY; not even for MERCHANTABILITY or FITNESS FOR A PARTICULAR PURPOSE.
For details see the documentation.
Scientific users of this library should cite U. Ekstrom, L. Visscher, R. Bast, A. J. Thorvaldsen and K. Ruud;
J.Chem.Theor.Comp. 2010, DOI: 10.1021/ct100117s
XCFun Version 0.99 

================================================================================

----- Orbital basis set information -----
Your calculation utilizes the basis: def2-mTZVP
----- AuxJ basis set information -----
Your calculation utilizes the basis: def2-mTZVP/J
================================================================================
                                        WARNINGS
                       Please study these warnings very carefully!
================================================================================


WARNING: Geometry Optimization
  ===> : Switching off AutoStart
         For restart on a previous wavefunction, please use MOREAD

================================================================================
                                       INPUT FILE
================================================================================
NAME = m1_00_Ibuprofen-GitHubGFN2-B97-3C-TZ.inp
|  1> %pal nprocs 16 end
|  2> %MaxCore 6000
|  3> # put your comments here
|  4> ! B97-3C  OPT  FREQ DEFGRID3 NOTRAH
|  5> %scf MaxIter 800 end
|  6> %output
|  7> Print [P_Hirshfeld] 1
|  8> end
|  9> %geom
| 10> MaxIter 3000
| 11>  TolE 1e-6 #TolE 5e-6 Energy change (a.u.)
| 12>  TolRMSG 3e-5 #TolRMSG 1e-4 RMS gradient (a.u.)
| 13>  TolMaxG 1e-4 #TolMaxG 3e-3 Max. element of gradient (a.u.)
| 14>  TolRMSD 2e-3 #TolRMSD 2e-3 RMS displacement (a.u.)
| 15>  TolMaxD 4e-3 #TolMaxD 4e-3 Max. displacement (a.u.)
| 16> end
| 17> * xyz 0 1
| 18>  O         3.8448040909        -0.7480436961        -1.2159114351
| 19>  C         3.4457060476        -0.3917239449         0.0126203330
| 20>  O         3.7246260077        -1.0296393498         0.9913747322
| 21>  C         2.5897040561         0.8556420385        -0.0227714590
| 22>  C         1.1530640587         0.3974779600        -0.1654402329
| 23>  C         0.5886130191        -0.4601844659         0.7711812692
| 24>  C        -0.7262419786        -0.8650235340         0.6469014673
| 25>  C        -1.5129839369        -0.4266881751        -0.4122898289
| 26>  C        -0.9416698974         0.4239382508        -1.3487573264
| 27>  C         0.3760781006         0.8288203152        -1.2304035244
| 28>  H         0.8016701319         1.4888918602        -1.9728269111
| 29>  H        -1.5322848645         0.7730787452        -2.1837535610
| 30>  C        -2.9500529356        -0.8461812285        -0.5135426264
| 31>  H        -3.3189798972        -0.6714098436        -1.5262527466
| 32>  H        -3.0301999496        -1.9152600990        -0.3019549776
| 33>  C        -3.8399959679        -0.0807806168         0.4813248741
| 34>  C        -5.2594069702        -0.6414656253         0.4539261634
| 35>  H        -5.2633319859        -1.6983854682         0.7115968076
| 36>  H        -5.6926899329        -0.5286392274        -0.5379199213
| 37>  H        -5.8909309934        -0.1136531882         1.1650198183
| 38>  C        -3.8502069475         1.4112081887         0.1623299642
| 39>  H        -4.4646719709         1.9490556304         0.8809016136
| 40>  H        -4.2568549097         1.5836065849        -0.8322921558
| 41>  H        -2.8422249465         1.8179302051         0.1988577536
| 42>  H        -3.4267730059        -0.2180350063         1.4867369731
| 43>  H        -1.1487500096        -1.5370270844         1.3803048613
| 44>  H         1.1879069866        -0.8221329683         1.5931715120
| 45>  C         2.7871290142         1.6895008091         1.2432060401
| 46>  H         2.6342189780         1.0724143469         2.1240754105
| 47>  H         3.7967070153         2.0925218239         1.2771418317
| 48>  H         2.0772290183         2.5127218233         1.2598185119
| 49>  H         2.8683050922         1.4316624966        -0.9091047998
| 50>  H         4.3509210849        -1.5753696784        -1.1821379120
| 51> *
| 52> 
| 53> 
| 54> 
| 55> 
| 56>                          ****END OF INPUT****
================================================================================

                       *****************************
                       * Geometry Optimization Run *
                       *****************************

Geometry optimization settings:
Update method            Update   .... BFGS
Choice of coordinates    CoordSys .... (2022) Redundant Internals
Initial Hessian          InHess   .... Almloef's Model
Max. no of cycles        MaxIter  .... 3000

Convergence Tolerances:
Energy Change            TolE     ....  1.0000e-06 Eh
Max. Gradient            TolMAXG  ....  1.0000e-04 Eh/bohr
RMS Gradient             TolRMSG  ....  3.0000e-05 Eh/bohr
Max. Displacement        TolMAXD  ....  4.0000e-03 bohr
RMS Displacement         TolRMSD  ....  2.0000e-03 bohr
Strict Convergence                .... False

------------------------------------------------------------------------------
                        ORCA OPTIMIZATION COORDINATE SETUP
------------------------------------------------------------------------------

The optimization will be done in redundant internal coordinates (2022)
Making redundant internal coordinates   ...  (2022 redundants) done
Evaluating the initial hessian          ...  (Almloef) done
Evaluating the coordinates              ...  done
Calculating the B-matrix                .... done
Calculating the G-matrix                .... done
Diagonalizing the G-matrix              .... done
Small eigenvalue found = 7.195e-03
Small eigenvalue found = 1.059e-02
Small eigenvalue found = 1.866e-02
Small eigenvalue found = 2.099e-02
The first mode is                       ....   63
The number of degrees of freedom        ....   93

    -----------------------------------------------------------------
                    Redundant Internal Coordinates


    -----------------------------------------------------------------
         Definition                    Initial Value    Approx d2E/dq
    -----------------------------------------------------------------
      1. B(C   1,O   0)                  1.3400         0.672492   
      2. B(O   2,C   1)                  1.2011         1.120003   
      3. B(C   3,C   1)                  1.5132         0.397290   
      4. B(C   4,C   3)                  1.5147         0.395227   
      5. B(C   5,C   4)                  1.3898         0.625334   
      6. B(C   6,C   5)                  1.3814         0.644921   
      7. B(C   7,C   6)                  1.3903         0.624065   
      8. B(C   8,C   7)                  1.3881         0.629077   
      9. B(C   9,C   8)                  1.3836         0.639620   
     10. B(C   9,C   4)                  1.3871         0.631602   
     11. B(H  10,C   9)                  1.0807         0.372550   
     12. B(H  11,C   8)                  1.0807         0.372595   
     13. B(C  12,C   7)                  1.5005         0.416389   
     14. B(H  13,C  12)                  1.0919         0.357602   
     15. B(H  14,C  12)                  1.0928         0.356468   
     16. B(C  15,C  12)                  1.5387         0.361824   
     17. B(C  16,C  15)                  1.5264         0.378571   
     18. B(H  17,C  16)                  1.0879         0.362912   
     19. B(H  18,C  16)                  1.0882         0.362463   
     20. B(H  19,C  16)                  1.0877         0.363173   
     21. B(C  20,C  15)                  1.5257         0.379462   
     22. B(H  21,C  20)                  1.0877         0.363094   
     23. B(H  22,C  20)                  1.0883         0.362380   
     24. B(H  23,C  20)                  1.0876         0.363344   
     25. B(H  24,C  15)                  1.0956         0.352705   
     26. B(H  25,C   6)                  1.0807         0.372571   
     27. B(H  26,C   5)                  1.0797         0.373938   
     28. B(C  27,C   3)                  1.5287         0.375330   
     29. B(H  28,C  27)                  1.0863         0.364991   
     30. B(H  29,C  27)                  1.0876         0.363319   
     31. B(H  30,C  27)                  1.0872         0.363871   
     32. B(H  31,C   3)                  1.0932         0.355940   
     33. B(H  32,O   0)                  0.9704         0.500383   
     34. A(C   1,O   0,H  32)          110.4949         0.372859   
     35. A(O   2,C   1,C   3)          126.0295         0.442750   
     36. A(O   0,C   1,C   3)          111.4833         0.404177   
     37. A(O   0,C   1,O   2)          122.4596         0.484224   
     38. A(C   1,C   3,C  27)          110.9284         0.367495   
     39. A(C   1,C   3,H  31)          108.0077         0.326993   
     40. A(C   1,C   3,C   4)          106.8219         0.370771   
     41. A(C   4,C   3,H  31)          108.9503         0.326713   
     42. A(C   4,C   3,C  27)          111.4376         0.367168   
     43. A(C  27,C   3,H  31)          110.5552         0.323950   
     44. A(C   3,C   4,C   5)          120.5586         0.401238   
     45. A(C   5,C   4,C   9)          118.8060         0.436190   
     46. A(C   3,C   4,C   9)          120.6351         0.401943   
     47. A(C   6,C   5,H  26)          119.9048         0.357556   
     48. A(C   4,C   5,H  26)          119.6374         0.355688   
     49. A(C   4,C   5,C   6)          120.4522         0.437833   
     50. A(C   5,C   6,H  25)          119.5577         0.357333   
     51. A(C   7,C   6,H  25)          119.4595         0.355344   
     52. A(C   5,C   6,C   7)          120.9818         0.437673   
     53. A(C   6,C   7,C   8)          118.3105         0.435715   
     54. A(C   8,C   7,C  12)          121.3304         0.405373   
     55. A(C   6,C   7,C  12)          120.3465         0.404800   
     56. A(C   7,C   8,H  11)          119.6222         0.355831   
     57. A(C   7,C   8,C   9)          120.9028         0.437653   
     58. A(C   9,C   8,H  11)          119.4748         0.356836   
     59. A(C   8,C   9,H  10)          119.6703         0.356829   
     60. A(C   4,C   9,H  10)          119.7869         0.356065   
     61. A(C   4,C   9,C   8)          120.5426         0.437969   
     62. A(H  14,C  12,C  15)          108.6050         0.322087   
     63. A(H  13,C  12,H  14)          108.1435         0.290060   
     64. A(H  13,C  12,C  15)          108.9434         0.322255   
     65. A(C   7,C  12,C  15)          111.7919         0.368146   
     66. A(C   7,C  12,H  14)          109.3110         0.329617   
     67. A(C   7,C  12,H  13)          109.9646         0.329790   
     68. A(C  12,C  15,C  16)          110.0910         0.362194   
     69. A(C  20,C  15,H  24)          108.4744         0.324047   
     70. A(C  16,C  15,H  24)          108.7339         0.323922   
     71. A(C  12,C  15,H  24)          108.2320         0.321528   
     72. A(C  16,C  15,C  20)          110.4400         0.365153   
     73. A(C  12,C  15,C  20)          110.8007         0.362340   
     74. A(H  18,C  16,H  19)          108.3235         0.291528   
     75. A(H  17,C  16,H  19)          108.3311         0.291584   
     76. A(C  15,C  16,H  19)          110.4834         0.325482   
     77. A(H  17,C  16,H  18)          108.3712         0.291495   
     78. A(C  15,C  16,H  18)          110.3974         0.325377   
     79. A(C  15,C  16,H  17)          110.8534         0.325443   
     80. A(H  22,C  20,H  23)          108.5283         0.291539   
     81. A(H  21,C  20,H  23)          108.4489         0.291629   
     82. A(C  15,C  20,H  23)          110.6390         0.325633   
     83. A(H  21,C  20,H  22)          108.3212         0.291507   
     84. A(C  15,C  20,H  22)          110.3951         0.325491   
     85. A(C  15,C  20,H  21)          110.4375         0.325596   
     86. A(H  29,C  27,H  30)          108.9701         0.291724   
     87. A(H  28,C  27,H  30)          109.0160         0.291935   
     88. A(C   3,C  27,H  30)          109.9597         0.325125   
     89. A(H  28,C  27,H  29)          108.4129         0.291865   
     90. A(C   3,C  27,H  29)          110.3560         0.325044   
     91. A(C   3,C  27,H  28)          110.0888         0.325289   
     92. D(O   2,C   1,O   0,H  32)      1.3122         0.033617   
     93. D(C   3,C   1,O   0,H  32)   -176.8837         0.033617   
     94. D(C   4,C   3,C   1,O   0)     90.6251         0.011721   
     95. D(C   4,C   3,C   1,O   2)    -87.4926         0.011721   
     96. D(H  31,C   3,C   1,O   0)    -26.4411         0.011721   
     97. D(C  27,C   3,C   1,O   0)   -147.7458         0.011721   
     98. D(C  27,C   3,C   1,O   2)     34.1366         0.011721   
     99. D(C   9,C   4,C   3,C  27)    116.0963         0.011606   
    100. D(C   9,C   4,C   3,C   1)   -122.5970         0.011606   
    101. D(C   5,C   4,C   3,C   1)     57.5847         0.011606   
    102. D(C   5,C   4,C   3,H  31)    174.0260         0.011606   
    103. D(C   5,C   4,C   3,C  27)    -63.7220         0.011606   
    104. D(H  26,C   5,C   4,C   3)     -1.5644         0.027088   
    105. D(C   6,C   5,C   4,C   9)     -0.5327         0.027088   
    106. D(C   6,C   5,C   4,C   3)    179.2889         0.027088   
    107. D(H  26,C   5,C   4,C   9)    178.6139         0.027088   
    108. D(H  25,C   6,C   5,H  26)      0.4868         0.028928   
    109. D(H  25,C   6,C   5,C   4)    179.6311         0.028928   
    110. D(C   7,C   6,C   5,H  26)   -179.1539         0.028928   
    111. D(C   7,C   6,C   5,C   4)     -0.0096         0.028928   
    112. D(C  12,C   7,C   6,H  25)      1.9902         0.026971   
    113. D(C  12,C   7,C   6,C   5)   -178.3687         0.026971   
    114. D(C   8,C   7,C   6,H  25)   -179.2817         0.026971   
    115. D(C   8,C   7,C   6,C   5)      0.3594         0.026971   
    116. D(H  11,C   8,C   7,C  12)     -1.6334         0.027434   
    117. D(H  11,C   8,C   7,C   6)    179.6516         0.027434   
    118. D(C   9,C   8,C   7,C  12)    178.5500         0.027434   
    119. D(C   9,C   8,C   7,C   6)     -0.1650         0.027434   
    120. D(H  10,C   9,C   4,C   3)      0.7262         0.027668   
    121. D(C   8,C   9,C   4,C   5)      0.7261         0.027668   
    122. D(C   8,C   9,C   4,C   3)   -179.0954         0.027668   
    123. D(H  10,C   9,C   8,H  11)     -0.0202         0.028422   
    124. D(H  10,C   9,C   8,C   7)    179.7967         0.028422   
    125. D(C   4,C   9,C   8,H  11)    179.8016         0.028422   
    126. D(C   4,C   9,C   8,C   7)     -0.3815         0.028422   
    127. D(H  10,C   9,C   4,C   5)   -179.4523         0.027668   
    128. D(C  15,C  12,C   7,C   6)     75.8406         0.012827   
    129. D(H  14,C  12,C   7,C   8)    136.8748         0.012827   
    130. D(H  14,C  12,C   7,C   6)    -44.4361         0.012827   
    131. D(H  13,C  12,C   7,C   8)     18.2969         0.012827   
    132. D(H  13,C  12,C   7,C   6)   -163.0140         0.012827   
    133. D(C  20,C  15,C  12,H  13)    -58.0436         0.010496   
    134. D(C  20,C  15,C  12,C   7)     63.6918         0.010496   
    135. D(C  16,C  15,C  12,H  14)    -53.1582         0.010496   
    136. D(C  16,C  15,C  12,H  13)     64.4177         0.010496   
    137. D(C  20,C  15,C  12,H  14)   -175.6195         0.010496   
    138. D(C  16,C  15,C  12,C   7)   -173.8469         0.010496   
    139. D(H  18,C  16,C  15,H  24)   -179.3823         0.011427   
    140. D(H  18,C  16,C  15,C  20)     61.7043         0.011427   
    141. D(H  18,C  16,C  15,C  12)    -60.9694         0.011427   
    142. D(H  17,C  16,C  15,H  24)    -59.2848         0.011427   
    143. D(H  17,C  16,C  15,C  20)   -178.1981         0.011427   
    144. D(H  17,C  16,C  15,C  12)     59.1281         0.011427   
    145. D(H  22,C  20,C  15,C  16)    -60.8818         0.011478   
    146. D(H  22,C  20,C  15,C  12)     61.3761         0.011478   
    147. D(H  21,C  20,C  15,H  24)    -60.1878         0.011478   
    148. D(H  21,C  20,C  15,C  16)     58.8832         0.011478   
    149. D(H  22,C  20,C  15,H  24)   -179.9527         0.011478   
    150. D(H  21,C  20,C  15,C  12)   -178.8589         0.011478   
    151. D(H  29,C  27,C   3,C   1)     66.8246         0.011243   
    152. D(H  28,C  27,C   3,H  31)   -172.6013         0.011243   
    153. D(H  28,C  27,C   3,C   4)     66.0767         0.011243   
    154. D(H  28,C  27,C   3,C   1)    -52.8068         0.011243   
    155. D(H  29,C  27,C   3,H  31)    -52.9699         0.011243   
    156. D(H  29,C  27,C   3,C   4)   -174.2918         0.011243   
    -----------------------------------------------------------------

Number of atoms                         .... 33
Number of degrees of freedom            .... 156


         *************************************************************
         *                GEOMETRY OPTIMIZATION CYCLE   1            *
         *************************************************************
---------------------------------
CARTESIAN COORDINATES (ANGSTROEM)
---------------------------------
  O      3.844804   -0.748044   -1.215911
  C      3.445706   -0.391724    0.012620
  O      3.724626   -1.029639    0.991375
  C      2.589704    0.855642   -0.022771
  C      1.153064    0.397478   -0.165440
  C      0.588613   -0.460184    0.771181
  C     -0.726242   -0.865024    0.646901
  C     -1.512984   -0.426688   -0.412290
  C     -0.941670    0.423938   -1.348757
  C      0.376078    0.828820   -1.230404
  H      0.801670    1.488892   -1.972827
  H     -1.532285    0.773079   -2.183754
  C     -2.950053   -0.846181   -0.513543
  H     -3.318980   -0.671410   -1.526253
  H     -3.030200   -1.915260   -0.301955
  C     -3.839996   -0.080781    0.481325
  C     -5.259407   -0.641466    0.453926
  H     -5.263332   -1.698385    0.711597
  H     -5.692690   -0.528639   -0.537920
  H     -5.890931   -0.113653    1.165020
  C     -3.850207    1.411208    0.162330
  H     -4.464672    1.949056    0.880902
  H     -4.256855    1.583607   -0.832292
  H     -2.842225    1.817930    0.198858
  H     -3.426773   -0.218035    1.486737
  H     -1.148750   -1.537027    1.380305
  H      1.187907   -0.822133    1.593172
  C      2.787129    1.689501    1.243206
  H      2.634219    1.072414    2.124075
  H      3.796707    2.092522    1.277142
  H      2.077229    2.512722    1.259819
  H      2.868305    1.431662   -0.909105
  H      4.350921   -1.575370   -1.182138

----------------------------
CARTESIAN COORDINATES (A.U.)
----------------------------
  NO LB      ZA    FRAG     MASS         X           Y           Z
   0 O     8.0000    0    15.999    7.265627   -1.413598   -2.297740
   1 C     6.0000    0    12.011    6.511441   -0.740251    0.023849
   2 O     8.0000    0    15.999    7.038523   -1.945736    1.873427
   3 C     6.0000    0    12.011    4.893831    1.616929   -0.043032
   4 C     6.0000    0    12.011    2.178975    0.751124   -0.312637
   5 C     6.0000    0    12.011    1.112317   -0.869623    1.457321
   6 C     6.0000    0    12.011   -1.372398   -1.634658    1.222467
   7 C     6.0000    0    12.011   -2.859125   -0.806324   -0.779115
   8 C     6.0000    0    12.011   -1.779498    0.801127   -2.548782
   9 C     6.0000    0    12.011    0.710685    1.566243   -2.325126
  10 H     1.0000    0     1.008    1.514937    2.813598   -3.728103
  11 H     1.0000    0     1.008   -2.895599    1.460907   -4.126696
  12 C     6.0000    0    12.011   -5.574792   -1.599051   -0.970455
  13 H     1.0000    0     1.008   -6.271963   -1.268781   -2.884200
  14 H     1.0000    0     1.008   -5.726248   -3.619317   -0.570612
  15 C     6.0000    0    12.011   -7.256541   -0.152653    0.909572
  16 C     6.0000    0    12.011   -9.938839   -1.212194    0.857796
  17 H     1.0000    0     1.008   -9.946256   -3.209483    1.344723
  18 H     1.0000    0     1.008  -10.757625   -0.998983   -1.016521
  19 H     1.0000    0     1.008  -11.132246   -0.214773    2.201568
  20 C     6.0000    0    12.011   -7.275837    2.666797    0.306759
  21 H     1.0000    0     1.008   -8.437007    3.683181    1.664663
  22 H     1.0000    0     1.008   -8.044290    2.992583   -1.572804
  23 H     1.0000    0     1.008   -5.371027    3.435390    0.375787
  24 H     1.0000    0     1.008   -6.475663   -0.412026    2.809526
  25 H     1.0000    0     1.008   -2.170823   -2.904560    2.608398
  26 H     1.0000    0     1.008    2.244819   -1.553606    3.010658
  27 C     6.0000    0    12.011    5.266911    3.192694    2.349319
  28 H     1.0000    0     1.008    4.977952    2.026569    4.013921
  29 H     1.0000    0     1.008    7.174736    3.954293    2.413448
  30 H     1.0000    0     1.008    3.925394    4.748356    2.380712
  31 H     1.0000    0     1.008    5.420311    2.705450   -1.717959
  32 H     1.0000    0     1.008    8.222049   -2.977017   -2.233917

--------------------------------
INTERNAL COORDINATES (ANGSTROEM)
--------------------------------
 O      0   0   0     0.000000000000     0.00000000     0.00000000
 C      1   0   0     1.339975118609     0.00000000     0.00000000
 O      2   1   0     1.201121385166   122.45963632     0.00000000
 C      2   1   3     1.513246141557   111.48332550   181.80409150
 C      4   2   1     1.514662729456   106.82194081    90.62510787
 C      5   4   2     1.389766041858   120.55860204    57.58466489
 C      6   5   4     1.381370263614   120.45223376   179.28894828
 C      7   6   5     1.390319027331   120.98184839     0.00000000
 C      8   7   6     1.388141355210   118.31045868     0.35936198
 C      9   8   7     1.383617322367   120.90279943   359.83498222
 H     10   9   8     1.080747660994   119.67026452   179.79668214
 H      9   8   7     1.080714502535   119.62215874   179.65159084
 C      8   7   6     1.500464547358   120.34653510   181.63125530
 H     13   8   7     1.091894650381   109.96462705   196.98595271
 H     13   8   7     1.092759126399   109.31101142   315.56390173
 C     13   8   7     1.538700113954   111.79185179    75.84056800
 C     16  13   8     1.526383294443   110.09099072   186.15307092
 H     17  16  13     1.087882861776   110.85338357    59.12808154
 H     17  16  13     1.088219912317   110.39740484   299.03056644
 H     17  16  13     1.087686878966   110.48337679   179.23179058
 C     16  13   8     1.525743298325   110.80072478    63.69180876
 H     21  16  13     1.087746455221   110.43750707   181.14109477
 H     21  16  13     1.088281642667   110.39505666    61.37612422
 H     21  16  13     1.087559098331   110.63897777   301.22281186
 H     16  13   8     1.095648425626   108.23201859   304.87408125
 H      7   6   5     1.080732319467   119.55769013   179.63111124
 H      6   5   4     1.079735123597   119.63743730   358.43555289
 C      4   2   1     1.528723680596   110.92840022   212.25423804
 H     28   4   2     1.086327772226   110.08881910   307.19315830
 H     28   4   2     1.087577729005   110.35597854    66.82461282
 H     28   4   2     1.087164576602   109.95966543   187.06512944
 H      4   2   1     1.093162795049   108.00767581   333.55887060
 H      1   2   3     0.970444920367   110.49488001     1.31216865

---------------------------
INTERNAL COORDINATES (A.U.)
---------------------------
 O      0   0   0     0.000000000000     0.00000000     0.00000000
 C      1   0   0     2.532186000440     0.00000000     0.00000000
 O      2   1   0     2.269790471561   122.45963632     0.00000000
 C      2   1   3     2.859620780755   111.48332550   181.80409150
 C      4   2   1     2.862297743930   106.82194081    90.62510787
 C      5   4   2     2.626277209336   120.55860204    57.58466489
 C      6   5   4     2.610411487773   120.45223376   179.28894828
 C      7   6   5     2.627322200435   120.98184839     0.00000000
 C      8   7   6     2.623206996516   118.31045868     0.35936198
 C      9   8   7     2.614657813423   120.90279943   359.83498222
 H     10   9   8     2.042317099154   119.67026452   179.79668214
 H      9   8   7     2.042254438747   119.62215874   179.65159084
 C      8   7   6     2.835467068164   120.34653510   181.63125530
 H     13   8   7     2.063381856314   109.96462705   196.98595271
 H     13   8   7     2.065015479236   109.31101142   315.56390173
 C     13   8   7     2.907721817606   111.79185179    75.84056800
 C     16  13   8     2.884446401890   110.09099072   186.15307092
 H     17  16  13     2.055800674544   110.85338357    59.12808154
 H     17  16  13     2.056437607760   110.39740484   299.03056644
 H     17  16  13     2.055430320706   110.48337679   179.23179058
 C     16  13   8     2.883236984500   110.80072478    63.69180876
 H     21  16  13     2.055542903512   110.43750707   181.14109477
 H     21  16  13     2.056554261215   110.39505666    61.37612422
 H     21  16  13     2.055188850300   110.63897777   301.22281186
 H     16  13   8     2.070475463495   108.23201859   304.87408125
 H      7   6   5     2.042288107870   119.55769013   179.63111124
 H      6   5   4     2.040403680775   119.63743730   358.43555289
 C      4   2   1     2.888869090766   110.92840022   212.25423804
 H     28   4   2     2.052861981180   110.08881910   307.19315830
 H     28   4   2     2.055224057171   110.35597854    66.82461282
 H     28   4   2     2.054443312279   109.95966543   187.06512944
 H      4   2   1     2.065778302435   108.00767581   333.55887060
 H      1   2   3     1.833875127549   110.49488001     1.31216865

---------------------
BASIS SET INFORMATION
---------------------
There are 3 groups of distinct atoms

 Group   1 Type O   : 11s6p2d contracted to 5s3p2d pattern {62111/411/11}
 Group   2 Type C   : 11s6p1d contracted to 5s3p1d pattern {62111/411/1}
 Group   3 Type H   : 5s contracted to 3s pattern {311}

Atom   0O    basis set group =>   1
Atom   1C    basis set group =>   2
Atom   2O    basis set group =>   1
Atom   3C    basis set group =>   2
Atom   4C    basis set group =>   2
Atom   5C    basis set group =>   2
Atom   6C    basis set group =>   2
Atom   7C    basis set group =>   2
Atom   8C    basis set group =>   2
Atom   9C    basis set group =>   2
Atom  10H    basis set group =>   3
Atom  11H    basis set group =>   3
Atom  12C    basis set group =>   2
Atom  13H    basis set group =>   3
Atom  14H    basis set group =>   3
Atom  15C    basis set group =>   2
Atom  16C    basis set group =>   2
Atom  17H    basis set group =>   3
Atom  18H    basis set group =>   3
Atom  19H    basis set group =>   3
Atom  20C    basis set group =>   2
Atom  21H    basis set group =>   3
Atom  22H    basis set group =>   3
Atom  23H    basis set group =>   3
Atom  24H    basis set group =>   3
Atom  25H    basis set group =>   3
Atom  26H    basis set group =>   3
Atom  27C    basis set group =>   2
Atom  28H    basis set group =>   3
Atom  29H    basis set group =>   3
Atom  30H    basis set group =>   3
Atom  31H    basis set group =>   3
Atom  32H    basis set group =>   3
---------------------------------
AUXILIARY/J BASIS SET INFORMATION
---------------------------------
There are 3 groups of distinct atoms

 Group   1 Type O   : 8s3p3d contracted to 6s3p3d pattern {311111/111/111}
 Group   2 Type C   : 8s3p3d contracted to 6s3p3d pattern {311111/111/111}
 Group   3 Type H   : 5s2p contracted to 3s1p pattern {311/2}

Atom   0O    basis set group =>   1
Atom   1C    basis set group =>   2
Atom   2O    basis set group =>   1
Atom   3C    basis set group =>   2
Atom   4C    basis set group =>   2
Atom   5C    basis set group =>   2
Atom   6C    basis set group =>   2
Atom   7C    basis set group =>   2
Atom   8C    basis set group =>   2
Atom   9C    basis set group =>   2
Atom  10H    basis set group =>   3
Atom  11H    basis set group =>   3
Atom  12C    basis set group =>   2
Atom  13H    basis set group =>   3
Atom  14H    basis set group =>   3
Atom  15C    basis set group =>   2
Atom  16C    basis set group =>   2
Atom  17H    basis set group =>   3
Atom  18H    basis set group =>   3
Atom  19H    basis set group =>   3
Atom  20C    basis set group =>   2
Atom  21H    basis set group =>   3
Atom  22H    basis set group =>   3
Atom  23H    basis set group =>   3
Atom  24H    basis set group =>   3
Atom  25H    basis set group =>   3
Atom  26H    basis set group =>   3
Atom  27C    basis set group =>   2
Atom  28H    basis set group =>   3
Atom  29H    basis set group =>   3
Atom  30H    basis set group =>   3
Atom  31H    basis set group =>   3
Atom  32H    basis set group =>   3


           ************************************************************
           *        Program running with 16 parallel MPI-processes    *
           *              working on a common directory               *
           ************************************************************
------------------------------------------------------------------------------
                             ORCA STARTUP CALCULATIONS
                           -- RI-GTO INTEGRALS CHOSEN --
------------------------------------------------------------------------------
------------------------------------------------------------------------------
                   ___                                                        
                  /   \      - P O W E R E D   B Y -                         
                 /     \                                                     
                 |  |  |   _    _      __       _____    __    __             
                 |  |  |  | |  | |    /  \     |  _  \  |  |  /  |          
                  \  \/   | |  | |   /    \    | | | |  |  | /  /          
                 / \  \   | |__| |  /  /\  \   | |_| |  |  |/  /          
                |  |  |   |  __  | /  /__\  \  |    /   |      \           
                |  |  |   | |  | | |   __   |  |    \   |  |\   \          
                \     /   | |  | | |  |  |  |  | |\  \  |  | \   \       
                 \___/    |_|  |_| |__|  |__|  |_| \__\ |__|  \__/        
                                                                              
                      - O R C A' S   B I G   F R I E N D -                    
                                      &                                       
                       - I N T E G R A L  F E E D E R -                       
                                                                              
 v1 FN, 2020, v2 2021, v3 2022-2024                                           
------------------------------------------------------------------------------


----------------------
SHARK INTEGRAL PACKAGE
----------------------

Number of atoms                             ...     33
Number of basis functions                   ...    349
Number of shells                            ...    191
Maximum angular momentum                    ...      2
Integral batch strategy                     ... SHARK/LIBINT Hybrid
RI-J (if used) integral strategy            ... SPLIT-RIJ (Revised 2003 algorithm where possible)
Printlevel                                  ...      1
Contraction scheme used                     ... SEGMENTED contraction
Prescreening option                         ... SCHWARTZ
   Thresh                                   ... 2.500e-11
   Tcut                                     ... 2.500e-12
   Tpresel                                  ... 2.500e-12 
Coulomb Range Separation                    ... NOT USED
Exchange Range Separation                   ... NOT USED
Multipole approximations                    ... NOT USED
Finite Nucleus Model                        ... NOT USED
CABS basis                                  ... NOT available
Auxiliary Coulomb fitting basis             ... AVAILABLE
   # of basis functions in Aux-J            ...    558
   # of shells in Aux-J                     ...    252
   Maximum angular momentum in Aux-J        ...      2
Auxiliary J/K fitting basis                 ... NOT available
Auxiliary Correlation fitting basis         ... NOT available
Auxiliary 'external' fitting basis          ... NOT available

Checking pre-screening integrals            ... done (  0.0 sec) Dimension = 191
Check shell pair data                       ... done (  0.0 sec)
Shell pair information
Shell pair cut-off parameter TPreSel        ...   2.5e-12
Total number of shell pairs                 ...     18336
Shell pairs after pre-screening             ...     14363
Total number of primitive shell pairs       ...     66087
Primitive shell pairs kept                  ...     34272
          la=0 lb=0:   6204 shell pairs
          la=1 lb=0:   4851 shell pairs
          la=1 lb=1:    933 shell pairs
          la=2 lb=0:   1612 shell pairs
          la=2 lb=1:    645 shell pairs
          la=2 lb=2:    118 shell pairs

Calculating one electron integrals          ... done (  0.0 sec)
Calculating RI/J V-Matrix + Cholesky decomp.... done (  0.0 sec)
Calculating Nuclear repulsion               ... done (  0.0 sec) ENN=    977.246138389610 Eh

Diagonalization of the overlap matrix:
Smallest eigenvalue                        ... 7.283e-06
Time for diagonalization                   ...    0.017 sec
Threshold for overlap eigenvalues          ... 1.000e-07
Number of eigenvalues below threshold      ... 0
Time for construction of square roots      ...    0.005 sec
Total time needed                          ...    0.022 sec

-------------------
DFT GRID GENERATION
-------------------

General Integration Accuracy     IntAcc      ... 4.959
Radial Grid Type                 RadialGrid  ... OptM3 with GC (2021)
Angular Grid (max. ang.)         AngularGrid ... 6 (Lebedev-590)
Angular grid pruning method      GridPruning ... 4 (adaptive)
Weight generation scheme         WeightScheme... mBecke (2022)
Basis function cutoff            BFCut       ... 1.0000e-11
Integration weight cutoff        WCut        ... 1.0000e-14
Partially contracted basis set               ... off
Rotationally invariant grid construction     ... off
Angular grids for H and He will be reduced by one unit
Diffuse basis detected: some atoms will have their outermost
                        angular grid increased by 1.

Total number of grid points                  ...   367996
Total number of batches                      ...     5764
Average number of points per batch           ...       63
Average number of grid points per atom       ...    11151
Initializing property integral containers    ... done (  0.0 sec)

SHARK setup successfully completed in   2.9 seconds

Maximum memory used throughout the entire STARTUP-calculation: 84.8 MB


           ************************************************************
           *        Program running with 16 parallel MPI-processes    *
           *              working on a common directory               *
           ************************************************************
-------------------------------------------------------------------------------
                                 ORCA GUESS
                   Start orbitals & Density for SCF / CASSCF
-------------------------------------------------------------------------------

------------
SCF SETTINGS
------------
Hamiltonian:
 Density Functional     Method          .... DFT(GTOs)
 Exchange Functional    Exchange        .... B973C
 Correlation Functional Correlation     .... B973C
 Gradients option       PostSCFGGA      .... off
 RI-approximation to the Coulomb term is turned on
   Number of AuxJ basis functions       .... 558


General Settings:
 Integral files         IntName         .... m1_00_Ibuprofen-GitHubGFN2-B97-3C-TZ
 Hartree-Fock type      HFTyp           .... RHF
 Total Charge           Charge          ....    0
 Multiplicity           Mult            ....    1
 Number of Electrons    NEL             ....  112
 Basis Dimension        Dim             ....  349
 Nuclear Repulsion      ENuc            ....    977.2461383896 Eh

Convergence Acceleration:
 AO-DIIS                CNVDIIS         .... on
   Start iteration      DIISMaxIt       ....    12
   Startup error        DIISStart       ....  0.200000
   # of expansion vecs  DIISMaxEq       ....     5
   Bias factor          DIISBfac        ....   1.050
   Max. coefficient     DIISMaxC        ....  10.000
 MO-DIIS                CNVKDIIS        .... off
 Trust-Rad. Augm. Hess. CNVTRAH         .... off
 SOSCF                  CNVSOSCF        .... on
   Start iteration      SOSCFMaxIt      ....   150
   Startup grad/error   SOSCFStart      ....  0.003300
   Hessian update       SOSCFHessUp     .... L-BFGS
 Level Shifting         CNVShift        .... on
   Level shift para.    LevelShift      ....    0.2500
   Turn off err/grad.   ShiftErr        ....    0.0010
 Zerner damping         CNVZerner       .... off
 Static damping         CNVDamp         .... on
   Fraction old density DampFac         ....    0.7000
   Max. Damping (<1)    DampMax         ....    0.9800
   Min. Damping (>=0)   DampMin         ....    0.0000
   Turn off err/grad.   DampErr         ....    0.1000

SCF Procedure:
 Maximum # iterations   MaxIter         ....   800
 SCF integral mode      SCFMode         .... Direct
   Integral package                     .... SHARK and LIBINT hybrid scheme
 Reset frequency        DirectResetFreq ....    20
 Integral Threshold     Thresh          ....  2.500e-11 Eh
 Primitive CutOff       TCut            ....  2.500e-12 Eh

Convergence Tolerance:
 Convergence Check Mode ConvCheckMode   .... Total+1el-Energy
 Convergence forced     ConvForced      .... 0
 Energy Change          TolE            ....  1.000e-08 Eh
 1-El. energy change                    ....  1.000e-05 Eh
 Orbital Gradient       TolG            ....  1.000e-05
 Orbital Rotation angle TolX            ....  1.000e-05
 DIIS Error             TolErr          ....  5.000e-07

--------------------------------
INITIAL GUESS: MINIMAL BASIS EHT
--------------------------------
The minimal basis has 93 functions
EHT matrix was diagonalized
Basis set overlap was calculated now projecting the orbitals
Using GuessMode=FMatrix for the initial guess
C*T matrix was formed
Effective Fockian was calculated
Effective Fockian was diagonalized
Initial density was built
                      ------------------
                      INITIAL GUESS DONE
                      ------------------
             **** ENERGY FILE WAS UPDATED (m1_00_Ibuprofen-GitHubGFN2-B97-3C-TZ.en.tmp) ****
Finished Guess after   0.2 sec
Maximum memory used throughout the entire GUESS-calculation: 24.4 MB


           ************************************************************
           *        Program running with 16 parallel MPI-processes    *
           *              working on a common directory               *
           ************************************************************

-------------------------------------------------------------------------------------------
                                      ORCA LEAN-SCF
                              memory conserving SCF solver
-------------------------------------------------------------------------------------------

----------------------------------------D-I-I-S--------------------------------------------
Iteration    Energy (Eh)           Delta-E    RMSDP     MaxDP     DIISErr   Damp  Time(sec)
-------------------------------------------------------------------------------------------
               ***  Starting incremental Fock matrix formation  ***
    1    -654.3660922035923022     0.00e+00  5.35e-03  2.04e-01  4.72e-01  0.700   0.5
    2    -655.0006415402027642    -6.35e-01  4.05e-03  1.43e-01  3.32e-01  0.700   0.4
    3    -655.3571130462893279    -3.56e-01  2.88e-03  1.13e-01  2.32e-01  0.700   0.4
                               ***Turning on AO-DIIS***
    4    -655.6174243830845398    -2.60e-01  2.21e-03  9.14e-02  1.62e-01  0.700   0.4
    5    -655.7973738570545947    -1.80e-01  1.57e-03  6.63e-02  1.13e-01  0.700   0.4
    6    -655.9250612392444282    -1.28e-01  1.11e-03  4.49e-02  7.91e-02  0.700   0.4
    7    -656.0160448350083016    -9.10e-02  2.64e-03  1.03e-01  5.54e-02  0.000   0.4
    8    -656.2254740864467522    -2.09e-01  3.87e-04  2.26e-02  2.97e-02  0.000   0.4
    9    -656.2273909851659255    -1.92e-03  7.77e-05  3.54e-03  1.02e-02  0.000   0.4
   10    -656.2274955747874401    -1.05e-04  3.41e-05  1.55e-03  5.47e-03  0.000   0.4
                              *** Initializing SOSCF ***
---------------------------------------S-O-S-C-F--------------------------------------
Iteration    Energy (Eh)           Delta-E    RMSDP     MaxDP     MaxGrad    Time(sec)
--------------------------------------------------------------------------------------
   11    -656.2275364997107090    -4.09e-05  1.34e-05  3.85e-04  3.96e-04     0.4
               *** Restarting incremental Fock matrix formation ***
   12    -656.2275375464988656    -1.05e-06  4.30e-05  2.31e-03  5.63e-05     0.4
   13    -656.2275369239299607     6.23e-07  9.90e-06  5.13e-04  1.52e-04     0.4
   14    -656.2275377360200537    -8.12e-07  1.06e-05  3.77e-04  3.30e-05     0.4
   15    -656.2275376443298001     9.17e-08  5.13e-06  1.59e-04  4.93e-05     0.3
   16    -656.2275377529093703    -1.09e-07  1.29e-05  5.50e-04  1.05e-05     0.3
   17    -656.2275377436184272     9.29e-09  7.29e-06  3.87e-04  2.35e-05     0.3
                 **** Energy Check signals convergence ****

               *****************************************************
               *                     SUCCESS                       *
               *           SCF CONVERGED AFTER  17 CYCLES          *
               *****************************************************

             **** ENERGY FILE WAS UPDATED (m1_00_Ibuprofen-GitHubGFN2-B97-3C-TZ.en.tmp) ****

----------------
TOTAL SCF ENERGY
----------------

Total Energy       :       -656.22753774361843 Eh          -17856.85913 eV

Components:
Nuclear Repulsion  :        977.24613838961034 Eh           26592.21935 eV
Electronic Energy  :      -1633.47367613322876 Eh          -44449.07848 eV
One Electron Energy:      -2829.86609776356272 Eh          -77004.57136 eV
Two Electron Energy:       1196.39242163033396 Eh           32555.49288 eV

Virial components:
Potential Energy   :      -1310.16766714366804 Eh          -35651.47471 eV
Kinetic Energy     :        653.94012940004973 Eh           17794.61558 eV
Virial Ratio       :          2.00349788648950

DFT components:
N(Alpha)           :       55.999988438671 electrons
N(Beta)            :       55.999988438671 electrons
N(Total)           :      111.999976877342 electrons
E(XC)              :      -94.033882614805 Eh       

---------------
SCF CONVERGENCE
---------------

  Last Energy change         ...   -9.2909e-09  Tolerance :   1.0000e-08
  Last MAX-Density change    ...    3.8696e-04  Tolerance :   1.0000e-07
  Last RMS-Density change    ...    7.2899e-06  Tolerance :   5.0000e-09
  Last DIIS Error            ...    3.9597e-04  Tolerance :   5.0000e-07
  Last Orbital Gradient      ...    2.3482e-05  Tolerance :   1.0000e-05
  Last Orbital Rotation      ...    2.4882e-05  Tolerance :   1.0000e-05


----------------
ORBITAL ENERGIES
----------------

  NO   OCC          E(Eh)            E(eV) 
   0   2.0000     -18.793649      -511.4012 
   1   2.0000     -18.731209      -509.7021 
   2   2.0000     -10.015860      -272.5454 
   3   2.0000      -9.916194      -269.8334 
   4   2.0000      -9.902890      -269.4713 
   5   2.0000      -9.896093      -269.2864 
   6   2.0000      -9.894176      -269.2342 
   7   2.0000      -9.892079      -269.1772 
   8   2.0000      -9.889575      -269.1090 
   9   2.0000      -9.889524      -269.1076 
  10   2.0000      -9.889178      -269.0982 
  11   2.0000      -9.889138      -269.0971 
  12   2.0000      -9.885323      -268.9933 
  13   2.0000      -9.876322      -268.7484 
  14   2.0000      -9.872804      -268.6527 
  15   2.0000      -1.029162       -28.0049 
  16   2.0000      -0.941140       -25.6097 
  17   2.0000      -0.797477       -21.7005 
  18   2.0000      -0.754591       -20.5335 
  19   2.0000      -0.730086       -19.8667 
  20   2.0000      -0.682932       -18.5835 
  21   2.0000      -0.678568       -18.4648 
  22   2.0000      -0.624102       -16.9827 
  23   2.0000      -0.620527       -16.8854 
  24   2.0000      -0.612066       -16.6552 
  25   2.0000      -0.557720       -15.1763 
  26   2.0000      -0.550494       -14.9797 
  27   2.0000      -0.519553       -14.1378 
  28   2.0000      -0.505843       -13.7647 
  29   2.0000      -0.461718       -12.5640 
  30   2.0000      -0.456364       -12.4183 
  31   2.0000      -0.428214       -11.6523 
  32   2.0000      -0.420118       -11.4320 
  33   2.0000      -0.417712       -11.3665 
  34   2.0000      -0.400906       -10.9092 
  35   2.0000      -0.399629       -10.8745 
  36   2.0000      -0.393860       -10.7175 
  37   2.0000      -0.381047       -10.3688 
  38   2.0000      -0.375577       -10.2200 
  39   2.0000      -0.369454       -10.0533 
  40   2.0000      -0.362783        -9.8718 
  41   2.0000      -0.344139        -9.3645 
  42   2.0000      -0.340823        -9.2743 
  43   2.0000      -0.337028        -9.1710 
  44   2.0000      -0.326596        -8.8871 
  45   2.0000      -0.321464        -8.7475 
  46   2.0000      -0.319129        -8.6839 
  47   2.0000      -0.306027        -8.3274 
  48   2.0000      -0.300083        -8.1657 
  49   2.0000      -0.289819        -7.8864 
  50   2.0000      -0.287994        -7.8367 
  51   2.0000      -0.282994        -7.7007 
  52   2.0000      -0.281429        -7.6581 
  53   2.0000      -0.236272        -6.4293 
  54   2.0000      -0.226899        -6.1742 
  55   2.0000      -0.211055        -5.7431 
  56   0.0000      -0.043351        -1.1796 
  57   0.0000      -0.034613        -0.9419 
  58   0.0000      -0.014051        -0.3824 
  59   0.0000       0.017950         0.4884 
  60   0.0000       0.027549         0.7496 
  61   0.0000       0.039851         1.0844 
  62   0.0000       0.049838         1.3562 
  63   0.0000       0.055042         1.4978 
  64   0.0000       0.067028         1.8239 
  65   0.0000       0.069161         1.8820 
  66   0.0000       0.078874         2.1463 
*Only the first 10 virtual orbitals were printed.

                    ********************************
                    * MULLIKEN POPULATION ANALYSIS *
                    ********************************

-----------------------
MULLIKEN ATOMIC CHARGES
-----------------------
   0 O :   -0.505090
   1 C :    0.371678
   2 O :   -0.387729
   3 C :   -0.277337
   4 C :    0.055927
   5 C :   -0.152296
   6 C :   -0.148108
   7 C :    0.156909
   8 C :   -0.137050
   9 C :   -0.137703
  10 H :    0.169102
  11 H :    0.174077
  12 C :   -0.576461
  13 H :    0.186890
  14 H :    0.180298
  15 C :   -0.183358
  16 C :   -0.456656
  17 H :    0.163220
  18 H :    0.151325
  19 H :    0.167684
  20 C :   -0.509423
  21 H :    0.162918
  22 H :    0.146190
  23 H :    0.194581
  24 H :    0.172415
  25 H :    0.179555
  26 H :    0.198727
  27 C :   -0.513462
  28 H :    0.190019
  29 H :    0.171439
  30 H :    0.176164
  31 H :    0.184978
  32 H :    0.430578
Sum of atomic charges:   -0.0000000

--------------------------------
MULLIKEN REDUCED ORBITAL CHARGES
--------------------------------
  0 O s       :     3.771361  s :     3.771361
      pz      :     1.521487  p :     4.695258
      px      :     1.656631
      py      :     1.517139
      dz2     :     0.017516  d :     0.038471
      dxz     :     0.002631
      dyz     :     0.006492
      dx2y2   :     0.005379
      dxy     :     0.006453

  1 C s       :     3.105224  s :     3.105224
      pz      :     0.743068  p :     2.401912
      px      :     0.816452
      py      :     0.842391
      dz2     :     0.041134  d :     0.121186
      dxz     :     0.028528
      dyz     :     0.029404
      dx2y2   :     0.010773
      dxy     :     0.011347

  2 O s       :     3.839294  s :     3.839294
      pz      :     1.477535  p :     4.516316
      px      :     1.500879
      py      :     1.537902
      dz2     :     0.010823  d :     0.032119
      dxz     :     0.003009
      dyz     :     0.008382
      dx2y2   :     0.005629
      dxy     :     0.004277

  3 C s       :     3.138354  s :     3.138354
      pz      :     1.118091  p :     3.088029
      px      :     1.016051
      py      :     0.953887
      dz2     :     0.011616  d :     0.050954
      dxz     :     0.006535
      dyz     :     0.010975
      dx2y2   :     0.008341
      dxy     :     0.013487

  4 C s       :     3.308132  s :     3.308132
      pz      :     0.805297  p :     2.587257
      px      :     0.837474
      py      :     0.944486
      dz2     :     0.010545  d :     0.048685
      dxz     :     0.012318
      dyz     :     0.007753
      dx2y2   :     0.008953
      dxy     :     0.009116

  5 C s       :     3.030922  s :     3.030922
      pz      :     1.007087  p :     3.079720
      px      :     1.096571
      py      :     0.976061
      dz2     :     0.006845  d :     0.041654
      dxz     :     0.012400
      dyz     :     0.005883
      dx2y2   :     0.008107
      dxy     :     0.008420

  6 C s       :     3.019158  s :     3.019158
      pz      :     0.979399  p :     3.087110
      px      :     1.069182
      py      :     1.038529
      dz2     :     0.006854  d :     0.041841
      dxz     :     0.011576
      dyz     :     0.007401
      dx2y2   :     0.007469
      dxy     :     0.008540

  7 C s       :     3.284721  s :     3.284721
      pz      :     0.842255  p :     2.509288
      px      :     0.765461
      py      :     0.901571
      dz2     :     0.010217  d :     0.049082
      dxz     :     0.012987
      dyz     :     0.007325
      dx2y2   :     0.009501
      dxy     :     0.009053

  8 C s       :     3.007288  s :     3.007288
      pz      :     1.003269  p :     3.087920
      px      :     1.092602
      py      :     0.992048
      dz2     :     0.007165  d :     0.041842
      dxz     :     0.012395
      dyz     :     0.005805
      dx2y2   :     0.008081
      dxy     :     0.008397

  9 C s       :     3.028680  s :     3.028680
      pz      :     0.961570  p :     3.067030
      px      :     1.074850
      py      :     1.030610
      dz2     :     0.007024  d :     0.041993
      dxz     :     0.011675
      dyz     :     0.007371
      dx2y2   :     0.007356
      dxy     :     0.008567

 10 H s       :     0.830898  s :     0.830898

 11 H s       :     0.825923  s :     0.825923

 12 C s       :     3.355774  s :     3.355774
      pz      :     1.096377  p :     3.175289
      px      :     0.977777
      py      :     1.101135
      dz2     :     0.012227  d :     0.045398
      dxz     :     0.008758
      dyz     :     0.003926
      dx2y2   :     0.013906
      dxy     :     0.006581

 13 H s       :     0.813110  s :     0.813110

 14 H s       :     0.819702  s :     0.819702

 15 C s       :     3.162833  s :     3.162833
      pz      :     1.058310  p :     2.969856
      px      :     0.970750
      py      :     0.940796
      dz2     :     0.011841  d :     0.050668
      dxz     :     0.009996
      dyz     :     0.006708
      dx2y2   :     0.012271
      dxy     :     0.009853

 16 C s       :     3.218128  s :     3.218128
      pz      :     1.109206  p :     3.200849
      px      :     0.984038
      py      :     1.107605
      dz2     :     0.007642  d :     0.037680
      dxz     :     0.009934
      dyz     :     0.003906
      dx2y2   :     0.010205
      dxy     :     0.005992

 17 H s       :     0.836780  s :     0.836780

 18 H s       :     0.848675  s :     0.848675

 19 H s       :     0.832316  s :     0.832316

 20 C s       :     3.246947  s :     3.246947
      pz      :     1.092125  p :     3.224951
      px      :     1.146050
      py      :     0.986777
      dz2     :     0.008550  d :     0.037525
      dxz     :     0.006234
      dyz     :     0.006503
      dx2y2   :     0.007974
      dxy     :     0.008264

 21 H s       :     0.837082  s :     0.837082

 22 H s       :     0.853810  s :     0.853810

 23 H s       :     0.805419  s :     0.805419

 24 H s       :     0.827585  s :     0.827585

 25 H s       :     0.820445  s :     0.820445

 26 H s       :     0.801273  s :     0.801273

 27 C s       :     3.258113  s :     3.258113
      pz      :     1.000166  p :     3.218412
      px      :     1.129821
      py      :     1.088425
      dz2     :     0.009880  d :     0.036937
      dxz     :     0.002201
      dyz     :     0.010012
      dx2y2   :     0.004758
      dxy     :     0.010086

 28 H s       :     0.809981  s :     0.809981

 29 H s       :     0.828561  s :     0.828561

 30 H s       :     0.823836  s :     0.823836

 31 H s       :     0.815022  s :     0.815022

 32 H s       :     0.569422  s :     0.569422



                     *******************************
                     * LOEWDIN POPULATION ANALYSIS *
                     *******************************

----------------------
LOEWDIN ATOMIC CHARGES
----------------------
   0 O :   -0.504471
   1 C :    0.353305
   2 O :   -0.423070
   3 C :   -0.133567
   4 C :   -0.051594
   5 C :   -0.137930
   6 C :   -0.150563
   7 C :   -0.070551
   8 C :   -0.157457
   9 C :   -0.148842
  10 H :    0.166164
  11 H :    0.165458
  12 C :   -0.277402
  13 H :    0.162177
  14 H :    0.165144
  15 C :   -0.220263
  16 C :   -0.420954
  17 H :    0.151829
  18 H :    0.153225
  19 H :    0.153877
  20 C :   -0.421724
  21 H :    0.153126
  22 H :    0.151916
  23 H :    0.162977
  24 H :    0.154623
  25 H :    0.166485
  26 H :    0.184591
  27 C :   -0.386506
  28 H :    0.175092
  29 H :    0.159925
  30 H :    0.160898
  31 H :    0.186318
  32 H :    0.377764

-------------------------------
LOEWDIN REDUCED ORBITAL CHARGES
-------------------------------
  0 O s       :     3.515269  s :     3.515269
      pz      :     1.568845  p :     4.719972
      px      :     1.634720
      py      :     1.516407
      dz2     :     0.084664  d :     0.269231
      dxz     :     0.055472
      dyz     :     0.059356
      dx2y2   :     0.026796
      dxy     :     0.042943

  1 C s       :     2.747029  s :     2.747029
      pz      :     0.925477  p :     2.630814
      px      :     0.793005
      py      :     0.912332
      dz2     :     0.101351  d :     0.268852
      dxz     :     0.058946
      dyz     :     0.066204
      dx2y2   :     0.018938
      dxy     :     0.023412

  2 O s       :     3.529380  s :     3.529380
      pz      :     1.564566  p :     4.633512
      px      :     1.494367
      py      :     1.574579
      dz2     :     0.075412  d :     0.260178
      dxz     :     0.050921
      dyz     :     0.071531
      dx2y2   :     0.032620
      dxy     :     0.029694

  3 C s       :     2.872708  s :     2.872708
      pz      :     1.093300  p :     3.167872
      px      :     1.041868
      py      :     1.032704
      dz2     :     0.020854  d :     0.092987
      dxz     :     0.010764
      dyz     :     0.021267
      dx2y2   :     0.015620
      dxy     :     0.024482

  4 C s       :     2.848562  s :     2.848562
      pz      :     1.067959  p :     3.103373
      px      :     1.018051
      py      :     1.017364
      dz2     :     0.021445  d :     0.099659
      dxz     :     0.025616
      dyz     :     0.016177
      dx2y2   :     0.018185
      dxy     :     0.018236

  5 C s       :     2.890729  s :     2.890729
      pz      :     1.060378  p :     3.165029
      px      :     1.083192
      py      :     1.021459
      dz2     :     0.013518  d :     0.082171
      dxz     :     0.023663
      dyz     :     0.011095
      dx2y2   :     0.016665
      dxy     :     0.017230

  6 C s       :     2.893583  s :     2.893583
      pz      :     1.058480  p :     3.174700
      px      :     1.084360
      py      :     1.031859
      dz2     :     0.013911  d :     0.082281
      dxz     :     0.023944
      dyz     :     0.012313
      dx2y2   :     0.015594
      dxy     :     0.016520

  7 C s       :     2.854166  s :     2.854166
      pz      :     1.059289  p :     3.116030
      px      :     1.051072
      py      :     1.005669
      dz2     :     0.020880  d :     0.100356
      dxz     :     0.026795
      dyz     :     0.015630
      dx2y2   :     0.018968
      dxy     :     0.018082

  8 C s       :     2.895613  s :     2.895613
      pz      :     1.061421  p :     3.179615
      px      :     1.086448
      py      :     1.031746
      dz2     :     0.013952  d :     0.082230
      dxz     :     0.023581
      dyz     :     0.010922
      dx2y2   :     0.016702
      dxy     :     0.017073

  9 C s       :     2.894044  s :     2.894044
      pz      :     1.055681  p :     3.172027
      px      :     1.086560
      py      :     1.029786
      dz2     :     0.014320  d :     0.082770
      dxz     :     0.024032
      dyz     :     0.012368
      dx2y2   :     0.015361
      dxy     :     0.016691

 10 H s       :     0.833836  s :     0.833836

 11 H s       :     0.834542  s :     0.834542

 12 C s       :     2.929326  s :     2.929326
      pz      :     1.108878  p :     3.268733
      px      :     1.052824
      py      :     1.107031
      dz2     :     0.020112  d :     0.079343
      dxz     :     0.016111
      dyz     :     0.006850
      dx2y2   :     0.024043
      dxy     :     0.012227

 13 H s       :     0.837823  s :     0.837823

 14 H s       :     0.834856  s :     0.834856

 15 C s       :     2.900731  s :     2.900731
      pz      :     1.088722  p :     3.222439
      px      :     1.061419
      py      :     1.072298
      dz2     :     0.021273  d :     0.097092
      dxz     :     0.018160
      dyz     :     0.013218
      dx2y2   :     0.025031
      dxy     :     0.019411

 16 C s       :     2.986158  s :     2.986158
      pz      :     1.146362  p :     3.372985
      px      :     1.090918
      py      :     1.135705
      dz2     :     0.012239  d :     0.061811
      dxz     :     0.016043
      dyz     :     0.005707
      dx2y2   :     0.017279
      dxy     :     0.010543

 17 H s       :     0.848171  s :     0.848171

 18 H s       :     0.846775  s :     0.846775

 19 H s       :     0.846123  s :     0.846123

 20 C s       :     2.983374  s :     2.983374
      pz      :     1.142831  p :     3.376704
      px      :     1.148408
      py      :     1.085465
      dz2     :     0.013626  d :     0.061646
      dxz     :     0.009226
      dyz     :     0.011140
      dx2y2   :     0.014113
      dxy     :     0.013541

 21 H s       :     0.846874  s :     0.846874

 22 H s       :     0.848084  s :     0.848084

 23 H s       :     0.837023  s :     0.837023

 24 H s       :     0.845377  s :     0.845377

 25 H s       :     0.833515  s :     0.833515

 26 H s       :     0.815409  s :     0.815409

 27 C s       :     2.979615  s :     2.979615
      pz      :     1.091533  p :     3.345723
      px      :     1.142498
      py      :     1.111692
      dz2     :     0.016884  d :     0.061168
      dxz     :     0.004096
      dyz     :     0.017354
      dx2y2   :     0.007136
      dxy     :     0.015697

 28 H s       :     0.824908  s :     0.824908

 29 H s       :     0.840075  s :     0.840075

 30 H s       :     0.839102  s :     0.839102

 31 H s       :     0.813682  s :     0.813682

 32 H s       :     0.622236  s :     0.622236



                      *****************************
                      * MAYER POPULATION ANALYSIS *
                      *****************************

  NA   - Mulliken gross atomic population
  ZA   - Total nuclear charge
  QA   - Mulliken gross atomic charge
  VA   - Mayer's total valence
  BVA  - Mayer's bonded valence
  FA   - Mayer's free valence

  ATOM       NA         ZA         QA         VA         BVA        FA
  0 O      8.5051     8.0000    -0.5051     1.9806     1.9806     0.0000
  1 C      5.6283     6.0000     0.3717     3.9659     3.9659     0.0000
  2 O      8.3877     8.0000    -0.3877     2.0990     2.0990    -0.0000
  3 C      6.2773     6.0000    -0.2773     3.8619     3.8619    -0.0000
  4 C      5.9441     6.0000     0.0559     3.6213     3.6213     0.0000
  5 C      6.1523     6.0000    -0.1523     3.9428     3.9428    -0.0000
  6 C      6.1481     6.0000    -0.1481     3.9286     3.9286     0.0000
  7 C      5.8431     6.0000     0.1569     3.5402     3.5402     0.0000
  8 C      6.1371     6.0000    -0.1371     3.9828     3.9828    -0.0000
  9 C      6.1377     6.0000    -0.1377     3.9942     3.9942     0.0000
 10 H      0.8309     1.0000     0.1691     0.9215     0.9215     0.0000
 11 H      0.8259     1.0000     0.1741     0.9233     0.9233     0.0000
 12 C      6.5765     6.0000    -0.5765     3.6264     3.6264    -0.0000
 13 H      0.8131     1.0000     0.1869     0.9436     0.9436    -0.0000
 14 H      0.8197     1.0000     0.1803     0.9441     0.9441    -0.0000
 15 C      6.1834     6.0000    -0.1834     3.7150     3.7150    -0.0000
 16 C      6.4567     6.0000    -0.4567     3.7120     3.7120    -0.0000
 17 H      0.8368     1.0000     0.1632     0.9532     0.9532    -0.0000
 18 H      0.8487     1.0000     0.1513     0.9616     0.9616    -0.0000
 19 H      0.8323     1.0000     0.1677     0.9520     0.9520    -0.0000
 20 C      6.5094     6.0000    -0.5094     3.7209     3.7209    -0.0000
 21 H      0.8371     1.0000     0.1629     0.9503     0.9503    -0.0000
 22 H      0.8538     1.0000     0.1462     0.9610     0.9610    -0.0000
 23 H      0.8054     1.0000     0.1946     0.9455     0.9455    -0.0000
 24 H      0.8276     1.0000     0.1724     0.9419     0.9419    -0.0000
 25 H      0.8204     1.0000     0.1796     0.9237     0.9237    -0.0000
 26 H      0.8013     1.0000     0.1987     0.9413     0.9413    -0.0000
 27 C      6.5135     6.0000    -0.5135     3.7531     3.7531     0.0000
 28 H      0.8100     1.0000     0.1900     0.9584     0.9584     0.0000
 29 H      0.8286     1.0000     0.1714     0.9478     0.9478     0.0000
 30 H      0.8238     1.0000     0.1762     0.9531     0.9531    -0.0000
 31 H      0.8150     1.0000     0.1850     0.9423     0.9423    -0.0000
 32 H      0.5694     1.0000     0.4306     0.8017     0.8017    -0.0000

  Mayer bond orders larger than 0.100000
B(  0-O ,  1-C ) :   1.1719 B(  0-O , 32-H ) :   0.7406 B(  1-C ,  2-O ) :   1.9307 
B(  1-C ,  3-C ) :   0.8960 B(  3-C ,  4-C ) :   0.9132 B(  3-C , 27-C ) :   0.9885 
B(  3-C , 31-H ) :   0.9641 B(  4-C ,  5-C ) :   1.3387 B(  4-C ,  9-C ) :   1.4208 
B(  5-C ,  6-C ) :   1.5624 B(  5-C , 26-H ) :   0.8816 B(  6-C ,  7-C ) :   1.3768 
B(  6-C , 25-H ) :   0.8920 B(  7-C ,  8-C ) :   1.4094 B(  7-C , 12-C ) :   0.7872 
B(  8-C ,  9-C ) :   1.5585 B(  8-C , 11-H ) :   0.8900 B(  9-C , 10-H ) :   0.8993 
B( 12-C , 13-H ) :   0.9907 B( 12-C , 14-H ) :   0.9696 B( 12-C , 15-C ) :   0.9507 
B( 15-C , 16-C ) :   0.9545 B( 15-C , 20-C ) :   0.9709 B( 15-C , 24-H ) :   0.9602 
B( 16-C , 17-H ) :   0.9614 B( 16-C , 18-H ) :   0.9599 B( 16-C , 19-H ) :   0.9605 
B( 20-C , 21-H ) :   0.9534 B( 20-C , 22-H ) :   0.9586 B( 20-C , 23-H ) :   0.9550 
B( 27-C , 28-H ) :   0.9523 B( 27-C , 29-H ) :   0.9550 B( 27-C , 30-H ) :   0.9580 



------------------
HIRSHFELD ANALYSIS
------------------

Total integrated alpha density =     55.999988439
Total integrated beta density  =     55.999988439

  ATOM     CHARGE      SPIN    
   0 O   -0.176537    0.000000
   1 C    0.214548    0.000000
   2 O   -0.281827    0.000000
   3 C   -0.009101    0.000000
   4 C   -0.001403    0.000000
   5 C   -0.041400    0.000000
   6 C   -0.040903    0.000000
   7 C    0.005651    0.000000
   8 C   -0.041098    0.000000
   9 C   -0.043739    0.000000
  10 H    0.037532    0.000000
  11 H    0.037219    0.000000
  12 C   -0.041896    0.000000
  13 H    0.028680    0.000000
  14 H    0.029451    0.000000
  15 C   -0.005021    0.000000
  16 C   -0.080122    0.000000
  17 H    0.025139    0.000000
  18 H    0.025230    0.000000
  19 H    0.026817    0.000000
  20 C   -0.083162    0.000000
  21 H    0.026049    0.000000
  22 H    0.023352    0.000000
  23 H    0.023402    0.000000
  24 H    0.023873    0.000000
  25 H    0.038296    0.000000
  26 H    0.039654    0.000000
  27 C   -0.075263    0.000000
  28 H    0.032481    0.000000
  29 H    0.030893    0.000000
  30 H    0.031815    0.000000
  31 H    0.038381    0.000000
  32 H    0.183029    0.000000

  TOTAL   0.000023    0.000000

-------
TIMINGS
-------

Total SCF time: 0 days 0 hours 0 min 7 sec 

Total time                  ....       7.568 sec
Sum of individual times     ....       7.470 sec  ( 98.7%)

SCF preparation             ....       0.168 sec  (  2.2%)
Fock matrix formation       ....       6.071 sec  ( 80.2%)
  Startup                   ....       0.016 sec  (  0.3% of F)
  Split-RI-J                ....       1.155 sec  ( 19.0% of F)
  XC integration            ....       4.601 sec  ( 75.8% of F)
    XC Preparation          ....       0.000 sec  (  0.0% of XC)
    Basis function eval.    ....       1.187 sec  ( 25.8% of XC)
    Density eval.           ....       1.000 sec  ( 21.7% of XC)
    XC-Functional eval.     ....       0.139 sec  (  3.0% of XC)
    XC-Potential eval.      ....       0.849 sec  ( 18.5% of XC)
Diagonalization             ....       0.000 sec  (  0.0%)
Density matrix formation    ....       0.058 sec  (  0.8%)
Total Energy calculation    ....       0.031 sec  (  0.4%)
Population analysis         ....       0.586 sec  (  7.7%)
Orbital Transformation      ....       0.048 sec  (  0.6%)
Orbital Orthonormalization  ....       0.000 sec  (  0.0%)
DIIS solution               ....       0.382 sec  (  5.0%)
SOSCF solution              ....       0.127 sec  (  1.7%)
Finished LeanSCF after   7.6 sec

Maximum memory used throughout the entire LEANSCF-calculation: 62.7 MB


           ************************************************************
           *        Program running with 16 parallel MPI-processes    *
           *              working on a common directory               *
           ************************************************************

------------------------------------------------------------------------------
                         ORCA PROPERTY INTEGRAL CALCULATIONS
------------------------------------------------------------------------------

GBWName                                   ... m1_00_Ibuprofen-GitHubGFN2-B97-3C-TZ.gbw
Number of atoms                           ...     33
Number of basis functions                 ...    349
Max core memory                           ...   6000 MB

Dipole integrals                          ... YES
Quadrupole integrals                      ...  NO
Linear momentum integrals                 ...  NO
Angular momentum integrals                ...  NO
Higher moments length integrals           ...  NO
Higher moments velocity integrals         ...  NO
Kinetic energy integrals                  ...  NO
GIAO right hand sides                     ...  NO
GIAO dipole derivative integrals          ...  NO
SOC integrals                             ...  NO
EPR diamagnetic integrals (GIAO)          ...  NO
[...]
 30:    661.34   0.000778    3.93  0.000367  (-0.009616  0.015279  0.006409)
 31:    706.31   0.006501   32.85  0.002872  (-0.048440 -0.022929 -0.000317)
 32:    743.85   0.001506    7.61  0.000632  ( 0.023141 -0.004386 -0.008778)
 33:    783.25   0.003632   18.35  0.001447  (-0.026868  0.017433  0.020521)
 34:    817.56   0.001754    8.86  0.000669  ( 0.021951  0.010850  0.008354)
 35:    826.00   0.000027    0.14  0.000010  ( 0.002454 -0.002077 -0.000197)
 36:    831.34   0.000170    0.86  0.000064  (-0.005583  0.005393 -0.001867)
 37:    843.07   0.000745    3.77  0.000276  (-0.003441 -0.013535 -0.008992)
 38:    858.00   0.002612   13.20  0.000950  ( 0.017661 -0.024226 -0.007150)
 39:    889.91   0.000065    0.33  0.000023  (-0.003121  0.002293  0.002768)
 40:    897.40   0.000353    1.79  0.000123  (-0.004394  0.006639  0.007713)
 41:    932.13   0.000463    2.34  0.000155  (-0.011655 -0.003710  0.002325)
 42:    942.44   0.000073    0.37  0.000024  ( 0.004199  0.002058  0.001485)
 43:    955.54   0.000072    0.37  0.000024  (-0.004604  0.001535 -0.000269)
 44:    968.12   0.000011    0.05  0.000003  ( 0.001435 -0.000758 -0.000919)
 45:   1007.88   0.000538    2.72  0.000166  (-0.010664 -0.007259  0.000204)
 46:   1038.68   0.000988    4.99  0.000297  ( 0.017082 -0.000582  0.002158)
 47:   1075.72   0.013787   69.67  0.004000  (-0.027892  0.017993  0.053832)
 48:   1089.89   0.002100   10.61  0.000601  (-0.024025  0.003132  0.003775)
 49:   1100.29   0.010314   52.12  0.002925  ( 0.043666 -0.014993 -0.028175)
 50:   1132.85   0.002403   12.14  0.000662  (-0.013720  0.017970  0.012280)
 51:   1140.52   0.013093   66.17  0.003582  (-0.028634  0.033760  0.040284)
 52:   1153.45   0.021550  108.91  0.005830  ( 0.040251 -0.023135 -0.060621)
 53:   1187.97   0.002331   11.78  0.000612  (-0.023836  0.001922  0.006353)
 54:   1205.28   0.000676    3.42  0.000175  ( 0.011351 -0.001170 -0.006698)
 55:   1216.15   0.001281    6.47  0.000329  (-0.007144  0.005672  0.015667)
 56:   1229.49   0.000278    1.40  0.000071  ( 0.005027  0.002238  0.006347)
 57:   1245.11   0.000711    3.59  0.000178  (-0.012523  0.004439  0.001287)
 58:   1278.00   0.001486    7.51  0.000363  ( 0.012710 -0.012453 -0.006803)
 59:   1309.64   0.000278    1.40  0.000066  (-0.005196  0.003692 -0.005061)
 60:   1312.08   0.000163    0.83  0.000039  (-0.001066 -0.005456 -0.002818)
 61:   1348.22   0.000124    0.63  0.000029  (-0.001713  0.004682  0.001955)
 62:   1362.15   0.000147    0.74  0.000034  ( 0.004135  0.002929 -0.002826)
 63:   1367.66   0.000105    0.53  0.000024  ( 0.004093 -0.000716  0.002582)
 64:   1370.99   0.000962    4.86  0.000219  (-0.013377  0.005797  0.002531)
 65:   1385.38   0.007198   36.38  0.001621  (-0.031286  0.018450  0.017382)
 66:   1399.95   0.001256    6.35  0.000280  ( 0.003432  0.016378  0.000015)
 67:   1408.64   0.002204   11.14  0.000488  ( 0.005393 -0.008341 -0.019739)
 68:   1420.04   0.001496    7.56  0.000329  ( 0.013714 -0.010472  0.005575)
 69:   1450.69   0.001470    7.43  0.000316  (-0.004994 -0.005908  0.016015)
 70:   1488.64   0.000137    0.69  0.000029  ( 0.003542 -0.000826 -0.003925)
 71:   1495.32   0.000458    2.31  0.000096  ( 0.000915 -0.004722  0.008510)
 72:   1496.44   0.000796    4.02  0.000166  (-0.008177 -0.006147  0.007832)
 73:   1502.40   0.000682    3.45  0.000142  ( 0.005235  0.009450  0.004989)
 74:   1504.01   0.001725    8.72  0.000358  (-0.009140  0.016364 -0.002582)
 75:   1510.97   0.000918    4.64  0.000190  (-0.006501  0.007502 -0.009543)
 76:   1518.83   0.002603   13.15  0.000535  (-0.003111  0.007715  0.021578)
 77:   1541.43   0.005205   26.30  0.001054  (-0.032077 -0.004734 -0.001530)
 78:   1604.76   0.000045    0.23  0.000009  (-0.002781  0.000369 -0.000942)
 79:   1645.29   0.000339    1.71  0.000064  (-0.004452 -0.000659  0.006635)
 80:   1777.54   0.049610  250.71  0.008709  (-0.036936  0.029690 -0.080397)
 81:   2967.60   0.001047    5.29  0.000110  (-0.003847  0.003019 -0.009286)
 82:   2983.06   0.003528   17.83  0.000369  ( 0.000346 -0.015194 -0.011750)
 83:   2985.47   0.010811   54.64  0.001130  ( 0.019123  0.027589  0.001798)
 84:   2992.11   0.010969   55.44  0.001144  (-0.030532  0.002330 -0.014368)
 85:   3013.10   0.006268   31.67  0.000649  ( 0.012073  0.018216  0.013099)
 86:   3026.18   0.003907   19.74  0.000403  (-0.006702  0.014006 -0.012720)
 87:   3037.96   0.002113   10.68  0.000217  ( 0.006363  0.006394 -0.011650)
 88:   3050.24   0.002180   11.02  0.000223  (-0.001272  0.014673 -0.002473)
 89:   3057.02   0.013737   69.42  0.001402  ( 0.001695 -0.011624  0.035558)
 90:   3062.15   0.011437   57.80  0.001166  (-0.011550  0.023076  0.022353)
 91:   3077.04   0.008715   44.04  0.000884  ( 0.029729  0.000071  0.000199)
 92:   3083.07   0.006805   34.39  0.000689  (-0.026095  0.002646  0.000898)
 93:   3105.65   0.003487   17.62  0.000350  ( 0.004829  0.014275 -0.011106)
 94:   3115.13   0.001018    5.15  0.000102  (-0.007143  0.001835 -0.006902)
 95:   3116.49   0.005835   29.49  0.000584  ( 0.019397  0.011876 -0.008184)
 96:   3130.43   0.005767   29.14  0.000575  (-0.003468  0.011638 -0.020674)
 97:   3142.92   0.001248    6.31  0.000124  ( 0.003129 -0.005011  0.009437)
 98:   3668.51   0.007515   37.98  0.000639  (-0.016313  0.018456  0.005703)

* The epsilon (eps) is given for a Dirac delta lineshape.
** The dipole moment derivative (T) already includes vibrational overlap.

The first frequency considered to be a vibration is 6
The total number of vibrations considered is 93


--------------------------
THERMOCHEMISTRY AT 298.15K
--------------------------

Temperature         ...   298.15 K
Pressure            ...     1.00 atm
Total Mass          ...   206.28 AMU
Quasi RRHO          ...     True
Cut-Off Frequency   ...     1.00 cm^-1

Throughout the following assumptions are being made:
  (1) The electronic state is orbitally nondegenerate
  (2) There are no thermally accessible electronically excited states
  (3) Hindered rotations indicated by low frequency modes are not
      treated as such but are treated as vibrations and this may
      cause some error
  (4) All equations used are the standard statistical mechanics
      equations for an ideal gas
  (5) All vibrations are strictly harmonic

freq.      25.54  E(vib)   ...       0.56 
freq.      39.19  E(vib)   ...       0.54 
freq.      47.46  E(vib)   ...       0.53 
freq.      51.37  E(vib)   ...       0.52 
freq.      72.66  E(vib)   ...       0.49 
freq.      94.55  E(vib)   ...       0.47 
freq.     180.19  E(vib)   ...       0.37 
freq.     200.94  E(vib)   ...       0.35 
freq.     223.48  E(vib)   ...       0.33 
freq.     234.61  E(vib)   ...       0.32 
freq.     239.88  E(vib)   ...       0.31 
freq.     258.29  E(vib)   ...       0.30 
freq.     288.22  E(vib)   ...       0.27 
freq.     322.19  E(vib)   ...       0.25 
freq.     347.58  E(vib)   ...       0.23 
freq.     386.06  E(vib)   ...       0.20 
freq.     402.77  E(vib)   ...       0.19 
freq.     408.44  E(vib)   ...       0.19 
freq.     424.37  E(vib)   ...       0.18 
freq.     472.19  E(vib)   ...       0.15 
freq.     505.61  E(vib)   ...       0.14 
freq.     583.64  E(vib)   ...       0.11 
freq.     619.01  E(vib)   ...       0.09 
freq.     638.30  E(vib)   ...       0.09 
freq.     661.34  E(vib)   ...       0.08 
freq.     706.31  E(vib)   ...       0.07 
freq.     743.85  E(vib)   ...       0.06 
freq.     783.25  E(vib)   ...       0.05 
freq.     817.56  E(vib)   ...       0.05 
freq.     826.00  E(vib)   ...       0.04 
freq.     831.34  E(vib)   ...       0.04 
freq.     843.07  E(vib)   ...       0.04 
freq.     858.00  E(vib)   ...       0.04 
freq.     889.91  E(vib)   ...       0.04 
freq.     897.40  E(vib)   ...       0.03 
freq.     932.13  E(vib)   ...       0.03 
freq.     942.44  E(vib)   ...       0.03 
freq.     955.54  E(vib)   ...       0.03 
freq.     968.12  E(vib)   ...       0.03 
freq.    1007.88  E(vib)   ...       0.02 
freq.    1038.68  E(vib)   ...       0.02 
freq.    1075.72  E(vib)   ...       0.02 
freq.    1089.89  E(vib)   ...       0.02 
freq.    1100.29  E(vib)   ...       0.02 
freq.    1132.85  E(vib)   ...       0.01 
freq.    1140.52  E(vib)   ...       0.01 
freq.    1153.45  E(vib)   ...       0.01 
freq.    1187.97  E(vib)   ...       0.01 
freq.    1205.28  E(vib)   ...       0.01 
freq.    1216.15  E(vib)   ...       0.01 
freq.    1229.49  E(vib)   ...       0.01 
freq.    1245.11  E(vib)   ...       0.01 
freq.    1278.00  E(vib)   ...       0.01 
freq.    1309.64  E(vib)   ...       0.01 
freq.    1312.08  E(vib)   ...       0.01 
freq.    1348.22  E(vib)   ...       0.01 
freq.    1362.15  E(vib)   ...       0.01 
freq.    1367.66  E(vib)   ...       0.01 
freq.    1370.99  E(vib)   ...       0.01 
freq.    1385.38  E(vib)   ...       0.00 
freq.    1399.95  E(vib)   ...       0.00 
freq.    1408.64  E(vib)   ...       0.00 
freq.    1420.04  E(vib)   ...       0.00 
freq.    1450.69  E(vib)   ...       0.00 
freq.    1488.64  E(vib)   ...       0.00 
freq.    1495.32  E(vib)   ...       0.00 
freq.    1496.44  E(vib)   ...       0.00 
freq.    1502.40  E(vib)   ...       0.00 
freq.    1504.01  E(vib)   ...       0.00 
freq.    1510.97  E(vib)   ...       0.00 
freq.    1518.83  E(vib)   ...       0.00 
freq.    1541.43  E(vib)   ...       0.00 
freq.    1604.76  E(vib)   ...       0.00 
freq.    1645.29  E(vib)   ...       0.00 
freq.    1777.54  E(vib)   ...       0.00 
freq.    2967.60  E(vib)   ...       0.00 
freq.    2983.06  E(vib)   ...       0.00 
freq.    2985.47  E(vib)   ...       0.00 
freq.    2992.11  E(vib)   ...       0.00 
freq.    3013.10  E(vib)   ...       0.00 
freq.    3026.18  E(vib)   ...       0.00 
freq.    3037.96  E(vib)   ...       0.00 
freq.    3050.24  E(vib)   ...       0.00 
freq.    3057.02  E(vib)   ...       0.00 
freq.    3062.15  E(vib)   ...       0.00 
freq.    3077.04  E(vib)   ...       0.00 
freq.    3083.07  E(vib)   ...       0.00 
freq.    3105.65  E(vib)   ...       0.00 
freq.    3115.13  E(vib)   ...       0.00 
freq.    3116.49  E(vib)   ...       0.00 
freq.    3130.43  E(vib)   ...       0.00 
freq.    3142.92  E(vib)   ...       0.00 
freq.    3668.51  E(vib)   ...       0.00 

------------
INNER ENERGY
------------

The inner energy is: U= E(el) + E(ZPE) + E(vib) + E(rot) + E(trans)
    E(el)   - is the total energy from the electronic structure calculation
              = E(kin-el) + E(nuc-el) + E(el-el) + E(nuc-nuc)
    E(ZPE)  - the the zero temperature vibrational energy from the frequency calculation
    E(vib)  - the the finite temperature correction to E(ZPE) due to population
              of excited vibrational states
    E(rot)  - is the rotational thermal energy
    E(trans)- is the translational thermal energy

Summary of contributions to the inner energy U:
Electronic energy                ...   -656.40675981 Eh
Zero point energy                ...      0.28171650 Eh     176.78 kcal/mol
Thermal vibrational correction   ...      0.01293655 Eh       8.12 kcal/mol
Thermal rotational correction    ...      0.00141627 Eh       0.89 kcal/mol
Thermal translational correction ...      0.00141627 Eh       0.89 kcal/mol
-----------------------------------------------------------------------
Total thermal energy                   -656.10927422 Eh


Summary of corrections to the electronic energy:
(perhaps to be used in another calculation)
Total thermal correction                  0.01576909 Eh       9.90 kcal/mol
Non-thermal (ZPE) correction              0.28171650 Eh     176.78 kcal/mol
-----------------------------------------------------------------------
Total correction                          0.29748559 Eh     186.67 kcal/mol


--------
ENTHALPY
--------

The enthalpy is H = U + kB*T
                kB is Boltzmann's constant
Total thermal energy              ...   -656.10927422 Eh 
Thermal Enthalpy correction       ...      0.00094421 Eh       0.59 kcal/mol
-----------------------------------------------------------------------
Total Enthalpy                    ...   -656.10833001 Eh


Note: Only C1 symmetry has been detected, increase convergence thresholds 
      if your molecule has a higher symmetry. Symmetry factor of 1.0 is   
      used for the rotational entropy correction. 
 

Note: Rotational entropy computed according to Herzberg 
Infrared and Raman Spectra, Chapter V,1, Van Nostrand Reinhold, 1945 
Point Group:  C1, Symmetry Number:   1  
Rotational constants in cm-1:     0.051889     0.008192     0.008118 

Vibrational entropy computed according to the QRRHO of S. Grimme
Chem.Eur.J. 2012 18 9955 using a reference frequency of 100.0 cm-1


-------
ENTROPY
-------

The entropy contributions are T*S = T*(S(el)+S(vib)+S(rot)+S(trans))
     S(el)   - electronic entropy
     S(vib)  - vibrational entropy
     S(rot)  - rotational entropy
     S(trans)- translational entropy
The entropies will be listed as multiplied by the temperature to get
units of energy

Electronic entropy                ...      0.00000000 Eh      0.00 kcal/mol
Vibrational entropy               ...      0.02274633 Eh     14.27 kcal/mol
Rotational entropy                ...      0.01544823 Eh      9.69 kcal/mol
Translational entropy             ...      0.01989675 Eh     12.49 kcal/mol
-----------------------------------------------------------------------
Final entropy term                ...      0.05809131 Eh     36.45 kcal/mol

In case the symmetry of your molecule has not been determined correctly
or in case you have a reason to use a different symmetry number we print 
out the resulting rotational entropy values for sn=1,12:

 non-linear molecules -----------------------------------
|  sn= 1 | S(rot)=       0.01544823 Eh      9.69 kcal/mol|
|  sn= 2 | S(rot)=       0.01479378 Eh      9.28 kcal/mol|
|  sn= 3 | S(rot)=       0.01441094 Eh      9.04 kcal/mol|
|  sn= 4 | S(rot)=       0.01413932 Eh      8.87 kcal/mol|
|  sn= 5 | S(rot)=       0.01392863 Eh      8.74 kcal/mol|
|  sn= 6 | S(rot)=       0.01375649 Eh      8.63 kcal/mol|
|  sn= 7 | S(rot)=       0.01361094 Eh      8.54 kcal/mol|
|  sn= 8 | S(rot)=       0.01348486 Eh      8.46 kcal/mol|
|  sn= 9 | S(rot)=       0.01337365 Eh      8.39 kcal/mol|
|  sn=10 | S(rot)=       0.01327418 Eh      8.33 kcal/mol|
|  sn=11 | S(rot)=       0.01318419 Eh      8.27 kcal/mol|
|  sn=12 | S(rot)=       0.01310203 Eh      8.22 kcal/mol|
 linear molecules ---------------------------------------
|  Dinfh | S(rot)=       0.00987077 Eh      6.19 kcal/mol|
|  Cinfv | S(rot)=       0.01052523 Eh      6.60 kcal/mol|
 --------------------------------------------------------


-------------------
GIBBS FREE ENERGY
-------------------

The Gibbs free energy is G = H - T*S

Total enthalpy                    ...   -656.10833001 Eh 
Total entropy correction          ...     -0.05809131 Eh    -36.45 kcal/mol
-----------------------------------------------------------------------
Final Gibbs free energy         ...   -656.16642132 Eh

For completeness - the Gibbs free energy minus the electronic energy
G-E(el)                           ...      0.24033849 Eh    150.81 kcal/mol


Maximum memory used throughout the entire PROP-calculation: 92.3 MB

--------------------------------
SUGGESTED CITATIONS FOR THIS RUN
--------------------------------

Below you find a list of papers that are relevant to this ORCA run
We neither can nor want to force you to cite these papers, but we appreciate if you do
You receive ORCA, which is the product of decades of hard work by many enthusiastic individuals, for free
The only thing we kindly ask in return is that you cite our papers,
We deeply appreciate it, if you show your appreciation for ORCA by not just citing the generic ORCA reference.

Please note that relegating all ORCA citations to the supporting information does *not* help us.
SI sections are not indexed - citations you put there will not count into any citation statistics
But we need these citations in order to attract the funding resources that allow us to do what we are doing

Therefore, if you are a happy ORCA user, please consider citing a few of the papers listed below in the main body of your paper

In addition to the list printed below, the program has created the file m1_00_Ibuprofen-GitHubGFN2-B97-3C-TZ.bibtex that contains the list in bibtex format
You can import this file easily into all common literature databanks and citation aid programs


List of essential papers. We consider these as the minimum necessary citations

  1. Neese,F.
     Software update: the ORCA program system, version 5.0
     WIRES Comput. Molec. Sci., 2022 12(1)e1606
     doi.org/10.1002/wcms.1606

List of papers to cite with high priority. The work reported in these papers was absolutely
necessary for this run to complete.
Our perspective: the developers of density functionals and basis sets usually get cited in chemistry papers
Good! But without the algorithms to do something with them, the functionals or basis sets would not do anything.
Hence, in our opinion, the algorithm design and method developments papers are equally worthy of getting cited

  1. Neese,F.
     An improvement of the resolution of the identity approximation for the formation of the Coulomb matrix
     J. Comp. Chem., 2003 24(14)1740-1747
     doi.org/10.1002/jcc.10318
  2. Bykov,D.; Petrenko,T.; Izsak,R.; Kossmann,S.; Becker,U.; Valeev,E.; Neese,F.
     Efficient implementation of the analytic second derivatives of Hartree-Fock and hybrid DFT energies: a detailed analysis of different approximations
     Molec. Phys., 2015 113 1961-1977
     doi.org/10.1080/00268976.2015.1025114
  3. Neese,F.
     The SHARK Integral Generation and Digestion System
     J. Comp. Chem., 2022  1-16
     doi.org/10.1002/jcc.26942
  4. Grimme,S.; Antony,J.; Ehrlich,S.; Krieg,H.
     A consistent and accurate ab initio parametrization of density functional dispersion correction (DFT-D) for the 94 elements H-Pu
     J. Chem. Phys., 2010 132 154104
     doi.org/10.1063/1.3382344
  5. Grimme,S.; Ehrlich,S.; Goerigk,L.
     Effect of the damping function in dispersion corrected density functional theory
     J. Comput. Chem., 2011 32(7)1456-1465
     doi.org/10.1002/jcc.21759

List of suggested additional citations. These are papers that are important in the 'surrounding' of 
of this run, or papers that preceded the highly important papers. If you like your results we are grateful for a citation.

  1. Neese,F.
     The ORCA program system
     WIRES Comput. Molec. Sci., 2012 2(1)73-78
     doi.org/10.1002/wcms.81
  2. Neese,F.
     Software update: the ORCA program system, version 4.0
     WIRES Comput. Molec. Sci., 2018 8(1)1-6
     doi.org/10.1002/wcms.1327
  3. Neese,F.; Wennmohs,F.; Becker,U.; Riplinger,C.
     The ORCA quantum chemistry program package
     J. Chem. Phys., 2020 152 Art. No. L224108
     doi.org/10.1063/5.0004608

List of optional additional citations

  1. Neese,F.
     Approximate second-order SCF convergence for spin unrestricted wavefunctions
     Chem. Phys. Lett., 2000 325(1-3)93-98
     doi.org/10.1016/s0009-2614(00)00662-x

Timings for individual modules:

Sum of individual times          ...      234.456 sec (=   3.908 min)
Startup calculation              ...       29.326 sec (=   0.489 min)  12.5 %
SCF iterations                   ...       45.632 sec (=   0.761 min)  19.5 %
Property integrals               ...       56.177 sec (=   0.936 min)  24.0 %
SCF Response                     ...       49.802 sec (=   0.830 min)  21.2 %
Property calculations            ...       25.163 sec (=   0.419 min)  10.7 %
SCF Gradient evaluation          ...       28.165 sec (=   0.469 min)  12.0 %
Geometry relaxation              ...        0.191 sec (=   0.003 min)   0.1 %
                             ****ORCA TERMINATED NORMALLY****
TOTAL RUN TIME: 0 days 0 hours 3 minutes 57 seconds 358 msec
