
                                 *****************
                                 * O   R   C   A *
                                 *****************

                                            #,                                       
                                            ###                                      
                                            ####                                     
                                            #####                                    
                                            ######                                   
                                           ########,                                 
                                     ,,################,,,,,                         
                               ,,#################################,,                 
                          ,,##########################################,,             
                       ,#########################################, ''#####,          
                    ,#############################################,,   '####,        
                  ,##################################################,,,,####,       
                ,###########''''           ''''###############################       
              ,#####''   ,,,,##########,,,,          '''####'''          '####       
            ,##' ,,,,###########################,,,                        '##       
           ' ,,###''''                  '''############,,,                           
         ,,##''                                '''############,,,,        ,,,,,,###''
      ,#''                                            '''#######################'''  
     '                                                          ''''####''''         
             ,#######,   #######,   ,#######,      ##                                
            ,#'     '#,  ##    ##  ,#'     '#,    #''#        ,####,   ,####,        
            ##       ##  ##   ,#'  ##            #'  '#       #'       #'  '#        
            ##       ##  #######   ##           ,######,      #####,   #    #        
            '#,     ,#'  ##    ##  '#,     ,#' ,#      #,     #,   #   #,  ,#        
             '#######'   ##     ##  '#######'  #'      '#     '####' # '####'        



                #########################################################
                #                        -***-                          #
                #          Department of theory and spectroscopy        #
                #                                                       #
                #                      Frank Neese                      #
                #                                                       #
                #     Directorship, Architecture, Infrastructure        #
                #                    SHARK, DRIVERS                     #
                #        Core code/Algorithms in most modules           #
                #                                                       #
                #        Max Planck Institute fuer Kohlenforschung      #
                #                Kaiser Wilhelm Platz 1                 #
                #                 D-45470 Muelheim/Ruhr                 #
                #                      Germany                          #
                #                                                       #
                #                  All rights reserved                  #
                #                        -***-                          #
                #########################################################


                         Program Version 6.0.1  -  RELEASE   -


 With contributions from (in alphabetic order):
[Max-Planck-Institut fuer Kohlenforschung]                               
  Daniel Aravena         : Magnetic Suceptibility                        
  Michael Atanasov       : Ab Initio Ligand Field Theory (pilot matlab implementation)
  Alexander A. Auer      : GIAO ZORA, VPT2 properties, NMR spectrum      
  Ute Becker             : All parallelization in ORCA, NUMFREQ, NUMCALC 
  Giovanni Bistoni       : ED, misc. LED, open-shell LED, HFLD           
  Martin Brehm           : Molecular dynamics                            
  Dmytro Bykov           : pre 5.0 version of the SCF Hessian            
  Marcos Casanova-Páez   : Triplet and SCS-CIS(D). UHF-(DLPNO)-IP/EA/STEOM-CCSD. UHF-CVS-IP/STEOM-CCSD   
  Vijay G. Chilkuri      : MRCI spin determinant printing, contributions to CSF-ICE 
  Pauline Colinet        : FMM embedding                                 
  Dipayan Datta          : RHF DLPNO-CCSD density                        
  Achintya Kumar Dutta   : EOM-CC, STEOM-CC                              
  Nicolas Foglia         : Exact transition moments, OPA infrastructure, MCD improvements    
  Dmitry Ganyushin       : Spin-Orbit,Spin-Spin,Magnetic field MRCI      
  Miquel Garcia-Rates    : C-PCM and meta-GGA Hessian, CCSD/C-PCM, Gaussian charge scheme 
  Tiago L. C. Gouveia    : GS-ROHF, GS-ROCIS                             
  Yang Guo               : DLPNO-NEVPT2, F12-NEVPT2, CIM, IAO-localization        
  Andreas Hansen         : Spin unrestricted coupled pair/coupled cluster methods 
  Ingolf Harden          : AUTO-CI MPn and infrastructure                
  Benjamin Helmich-Paris : MC-RPA, TRAH-(SCF,CASSCF), AVAS, COSX integrals, SCF dyn. polar. 
  Lee Huntington         : MR-EOM, pCC                                   
  Robert Izsak           : Overlap fitted RIJCOSX, COSX-SCS-MP3, EOM     
  Riya Kayal             : Wick's Theorem for AUTO-CI, AUTO-CI UHF-CCSDT 
  Emily Kempfer          : AUTO-CI, RHF CISDT and CCSDT                  
  Christian Kollmar      : KDIIS, OOCD, Brueckner-CCSD(T), CCSD density, CASPT2, CASPT2-K, improved NEVPT2 
  Axel Koslowski         : Symmetry handling                             
  Simone Kossmann        : meta-GGA functionals, TD-DFT gradient, OOMP2, (MP2 Hessian; deprecated post 5.0) 
  Lucas Lang             : DCDCAS                                        
  Marvin Lechner         : AUTO-CI (C++ implementation), FIC-MRCC        
  Spencer Leger          : CASSCF response                               
  Dagmar Lenk            : GEPOL surface, SMD, ORCA-2-JSON               
  Dimitrios Liakos       : Extrapolation schemes; Compound Job, initial MDCI parallelization 
  Dimitrios Manganas     : Further ROCIS development; embedding schemes. LFT, Crystal Embedding 
  Dimitrios Pantazis     : SARC Basis sets                               
  Anastasios Papadopoulos: AUTO-CI, single reference methods and gradients 
  Taras Petrenko         : pre 6.0 DFT Hessian and TD-DFT gradient, (ASA, deprecated), ECA, 1-Electron XAS/XES, NRVS 
  Peter Pinski           : DLPNO-MP2, DLPNO-MP2 Gradient                 
  Christoph Reimann      : Effective Core Potentials                     
  Marius Retegan         : Local ZFS, SOC                                
  Christoph Riplinger    : Optimizer, TS searches, QM/MM, DLPNO-CCSD(T), (RO)-DLPNO pert. Triples 
  Michael Roemelt        : Original ROCIS implementation                 
  Masaaki Saitow         : Open-shell DLPNO-CCSD energy and density      
  Barbara Sandhoefer     : DKH picture change effects                    
  Kantharuban Sivalingam : CASSCF convergence/infrastructure, NEVPT2 and variants, FIC-MRCI 
  Bernardo de Souza      : ESD, SOC TD-DFT                               
  Georgi L. Stoychev     : AutoAux, RI-MP2 NMR, DLPNO-MP2 response, X2C  
  Van Anh Tran           : RI-MP2 g-tensors                              
  Willem Van den Heuvel  : Paramagnetic NMR                              
  Zikuan Wang            : NOTCH, Electric field optimization            
  Frank Wennmohs         : Technical directorship and infrastructure     
  Hang Xu                : AUTO-CI-Response properties                   
                                                                         
[FACCTs GmbH]                                                            
  Markus Bursch, Miquel Garcia-Rates, Christoph Riplinger, Bernardo de Souza, Georgi L. Stoychev 
                                                                 
  APM, Basis sets (HGBS, AHGBS, def-TZVP (Ac-Lr), def2-XVPD (La-Lu)), CI-OPT, improved COSX, DLPNO-Multilevel,           
  DOCKER, DRACO, updates on ESD, GOAT, IRC, LR-CPCM, MBIS, meta-GGA TD-DFT gradient, ML-optimized integration grids, 
  MM, NACMEs, nearIR, NEB, NEB-TS, NL-DFT gradient (VV10), 2- and 3-layer-ONIOM, interface openCOSMO-RS, QMMM,   
  Crystal-QMMM, SF, symmetry and pop. for TD-DFT, r2SCAN hybrids, SOLVATOR                                   
                                                                         
[Other institutions]                                                     
  V. Asgeirsson          : NEB                                           
  Christoph Bannwarth    : sTDA-DFT, sTD-DFT, PBEh-3c, B97-3c, D3        
  Sebastian Ehlert       : rSCAN, r2SCAN, r2SCAN-3c, D4, dhf basis sets  
  Marvin Friede          : D4 for Fr, Ra, Ac-Lr                          
  Lars Goerigk           : TD-DFT with DH, B97 family of functionals     
  Stefan Grimme          : VdW corrections, initial TS optimization, DFT functionals, gCP, sTDA/sTD-DF 
  Waldemar Hujo          : DFT-NL                                        
  H. Jonsson             : NEB                                           
  Holger Kruse           : gCP                                           
  Marcel Mueller         : wB97X-3c, vDZP basis set                      
  Hagen Neugebauer       : wr2SCAN                                       
  Tobias Risthaus        : range-separated hybrid DFT                    
  Lukas Wittmann         : regularized MP2, r2SCAN double-hybrids, wr2SCAN        
                                                                         
We gratefully acknowledge several colleagues who have allowed us to      
interface, adapt or use parts of their codes:                            
  Ed Valeev, F. Pavosevic, A. Kumar             : LibInt (2-el integral package), F12 methods 
  Garnet Chan, S. Sharma, J. Yang, R. Olivares  : DMRG                   
  Ulf Ekstrom                                   : XCFun DFT Library      
  Mihaly Kallay                                 : mrcc  (arbitrary order and MRCC methods)
  Frank Weinhold                                : gennbo (NPA and NBO analysis)           
  Simon Mueller                                 : openCOSMO-RS                            
  Christopher J. Cramer and Donald G. Truhlar   : smd solvation model                     
  S Lehtola, MJT Oliveira, MAL Marques          : LibXC Library                           
  Liviu Ungur et al                             : ANISO software                          


 Your calculation uses the libint2 library for the computation of 2-el integrals
 For citations please refer to: http://libint.valeyev.net

 Your ORCA version has been built with support for libXC version: 6.2.2
 For citations please refer to: https://libxc.gitlab.io

 This ORCA versions uses:
   CBLAS   interface :  Fast vector & matrix operations
   LAPACKE interface :  Fast linear algebra routines
   SCALAPACK package :  Parallel linear algebra routines
   Shared memory     :  Shared parallel matrices
   BLAS/LAPACK       :  OpenBLAS 0.3.27  USE64BITINT DYNAMIC_ARCH NO_AFFINITY Zen SINGLE_THREADED
        Core in use  :  Zen
   Copyright (c) 2011-2014, The OpenBLAS Project


NOTE: MaxCore=6000 MB was set to SCF,MP2,MDCI,CIPSI,MRCI and CIS
      => If you want to overwrite this, your respective input block should be placed after the MaxCore statement
Your calculation utilizes the atom-pairwise dispersion correction
with the Becke-Johnson damping scheme (D3BJ)


Your calculation employs the composite approach B97-3c by Grimme and coworkers.
For the correct reference, please check the publication list of the Grimme group:
http://www.thch.uni-bonn.de/tc/index.php?section=publikationen&subsection=grimme#2017
   

XCFun DFT library Copyright 2009-2010 Ulf Ekstrom and contributors.
See http://admol.org/xcfun for more information.
This is free software; see the source code for copying conditions.
There is ABSOLUTELY NO WARRANTY; not even for MERCHANTABILITY or FITNESS FOR A PARTICULAR PURPOSE.
For details see the documentation.
Scientific users of this library should cite U. Ekstrom, L. Visscher, R. Bast, A. J. Thorvaldsen and K. Ruud;
J.Chem.Theor.Comp. 2010, DOI: 10.1021/ct100117s
XCFun Version 0.99 

================================================================================

----- Orbital basis set information -----
Your calculation utilizes the basis: def2-mTZVP
----- AuxJ basis set information -----
Your calculation utilizes the basis: def2-mTZVP/J
================================================================================
                                        WARNINGS
                       Please study these warnings very carefully!
================================================================================


WARNING: Geometry Optimization
  ===> : Switching off AutoStart
         For restart on a previous wavefunction, please use MOREAD

================================================================================
                                       INPUT FILE
================================================================================
NAME = m1_00_Lisdexamfetamin-GitHubGFN2-B97-3C-TZ.inp
|  1> %pal nprocs 16 end
|  2> %MaxCore 6000
|  3> # put your comments here
|  4> ! B97-3C  OPT  FREQ DEFGRID3 NOTRAH
|  5> %scf MaxIter 800 end
|  6> %output
|  7> Print [P_Hirshfeld] 1
|  8> end
|  9> %geom
| 10> MaxIter 3000
| 11>  TolE 1e-6 #TolE 5e-6 Energy change (a.u.)
| 12>  TolRMSG 3e-5 #TolRMSG 1e-4 RMS gradient (a.u.)
| 13>  TolMaxG 1e-4 #TolMaxG 3e-3 Max. element of gradient (a.u.)
| 14>  TolRMSD 2e-3 #TolRMSD 2e-3 RMS displacement (a.u.)
| 15>  TolMaxD 4e-3 #TolMaxD 4e-3 Max. displacement (a.u.)
| 16> end
| 17> * xyz 0 1
| 18>  O         2.1164810755         2.5013516990         0.6344091207
| 19>  C         1.7362351285         1.4593014696         0.1324375664
| 20>  N         0.5309060404         1.2863135238        -0.4368999926
| 21>  H         0.2767462599         0.3607250521        -0.7867225265
| 22>  C        -0.4625310150         2.3319903436        -0.5240368463
| 23>  C        -1.0612477054         2.3386504259        -1.9267310991
| 24>  H        -1.5491769877         1.3889577299        -2.1334564574
| 25>  H        -1.7890073210         3.1396910115        -2.0261012967
| 26>  H        -0.2763847924         2.4920734484        -2.6635938971
| 27>  H         0.0652152056         3.2757826428        -0.3429467759
| 28>  C        -1.5420633972         2.1814809776         0.5752603139
| 29>  C        -2.1412046591         0.8074407820         0.6088255052
| 30>  C        -1.6178038227        -0.1593949570         1.4596349981
| 31>  C        -2.1292999753        -1.4446739249         1.4741954964
| 32>  C        -3.1756765993        -1.7847523109         0.6331318875
| 33>  C        -3.7175824389        -0.8252040139        -0.2058904071
| 34>  C        -3.2070768764         0.4617440814        -0.2139480921
| 35>  H        -3.6511719714         1.2077703372        -0.8572065056
| 36>  H        -4.5457426431        -1.0790740826        -0.8523870418
| 37>  H        -3.5755344688        -2.7882818015         0.6398137848
| 38>  H        -1.7154880583        -2.1815721512         2.1476023274
| 39>  H        -0.8094268149         0.1056275093         2.1255553132
| 40>  H        -1.0696791932         2.3933439297         1.5357696006
| 41>  H        -2.3156934509         2.9302967039         0.3979133361
| 42>  C         2.6296339304         0.2096753901         0.0515544013
| 43>  N         3.9905488255         0.4680924694         0.4902292820
| 44>  H         4.4078612808         1.1806083326        -0.1010285905
| 45>  H         3.9626822495         0.8614588985         1.4275360779
| 46>  C         2.0254314170        -0.9361698048         0.8745205375
| 47>  H         0.9392503895        -0.8734246056         0.8564144255
| 48>  H         2.3562673871        -0.8162553927         1.9082949483
| 49>  C         2.4538188200        -2.3139899314         0.3756876418
| 50>  H         3.5411419569        -2.3333039364         0.2895952919
| 51>  C         1.8420001207        -2.7107330186        -0.9701198409
| 52>  H         2.1727997274        -3.7249635685        -1.2024938330
| 53>  H         2.2199333831        -2.0589284585        -1.7592247767
| 54>  C         0.3092598813        -2.6728255719        -0.9972260803
| 55>  N        -0.1855208452        -1.3722278850        -1.4506854072
| 56>  H        -1.1967094283        -1.3422594652        -1.3595421643
| 57>  H         0.0393413399        -1.2497531592        -2.4341982900
| 58>  H        -0.0864800328        -2.8428967528         0.0065757077
| 59>  H        -0.0608202626        -3.4867637691        -1.6403165832
| 60>  H         2.1615855104        -3.0585672809         1.1201126968
| 61>  H         2.6726857018        -0.0825192338        -1.0031672645
| 62> *
| 63> 
| 64> 
| 65> 
| 66> 
| 67>                          ****END OF INPUT****
================================================================================

                       *****************************
                       * Geometry Optimization Run *
                       *****************************

Geometry optimization settings:
Update method            Update   .... BFGS
Choice of coordinates    CoordSys .... (2022) Redundant Internals
Initial Hessian          InHess   .... Almloef's Model
Max. no of cycles        MaxIter  .... 3000

Convergence Tolerances:
Energy Change            TolE     ....  1.0000e-06 Eh
Max. Gradient            TolMAXG  ....  1.0000e-04 Eh/bohr
RMS Gradient             TolRMSG  ....  3.0000e-05 Eh/bohr
Max. Displacement        TolMAXD  ....  4.0000e-03 bohr
RMS Displacement         TolRMSD  ....  2.0000e-03 bohr
Strict Convergence                .... False

------------------------------------------------------------------------------
                        ORCA OPTIMIZATION COORDINATE SETUP
------------------------------------------------------------------------------

The optimization will be done in redundant internal coordinates (2022)
Making redundant internal coordinates   ...  (2022 redundants) done
Evaluating the initial hessian          ...  (Almloef) done
Evaluating the coordinates              ...  done
Calculating the B-matrix                .... done
Calculating the G-matrix                .... done
Diagonalizing the G-matrix              .... done
Small eigenvalue found = 2.584e-03
Small eigenvalue found = 5.438e-03
Small eigenvalue found = 9.770e-03
Small eigenvalue found = 1.406e-02
Small eigenvalue found = 1.986e-02
The first mode is                       ....   88
The number of degrees of freedom        ....  126

    -----------------------------------------------------------------
                    Redundant Internal Coordinates


    -----------------------------------------------------------------
         Definition                    Initial Value    Approx d2E/dq
    -----------------------------------------------------------------
      1. B(C   1,O   0)                  1.2176         1.054402   
      2. B(N   2,C   1)                  1.3442         0.662122   
      3. B(H   3,N   2)                  1.0216         0.414641   
      4. B(C   4,N   2)                  1.4450         0.457265   
      5. B(C   5,C   4)                  1.5251         0.380302   
      6. B(H   6,C   5)                  1.0875         0.363379   
      7. B(H   7,C   5)                  1.0868         0.364333   
      8. B(H   8,C   5)                  1.0874         0.363509   
      9. B(H   9,C   4)                  1.0964         0.351756   
     10. B(C  10,C   4)                  1.5481         0.349591   
     11. B(C  11,C  10)                  1.4994         0.418081   
     12. B(C  12,C  11)                  1.3902         0.624387   
     13. B(C  13,C  12)                  1.3834         0.640142   
     14. B(C  14,C  13)                  1.3849         0.636615   
     15. B(C  15,C  14)                  1.3850         0.636271   
     16. B(C  16,C  15)                  1.3845         0.637485   
     17. B(C  16,C  11)                  1.3902         0.624428   
     18. B(H  17,C  16)                  1.0805         0.372841   
     19. B(H  18,C  15)                  1.0809         0.372397   
     20. B(H  19,C  14)                  1.0803         0.373192   
     21. B(H  20,C  13)                  1.0806         0.372727   
     22. B(H  21,C  12)                  1.0804         0.373092   
     23. B(H  22,C  10)                  1.0912         0.358580   
     24. B(H  23,C  10)                  1.0912         0.358538   
     25. B(C  24,C   1)                  1.5383         0.362398   
     26. B(N  25,C  24)                  1.4530         0.443926   
     27. B(H  26,N  25)                  1.0156         0.423919   
     28. B(H  27,N  25)                  1.0169         0.421899   
     29. B(C  28,C  24)                  1.5347         0.367184   
     30. B(H  29,C  28)                  1.0881         0.362566   
     31. B(H  30,C  28)                  1.0920         0.357429   
     32. B(C  31,C  28)                  1.5267         0.378165   
     33. B(H  32,C  31)                  1.0909         0.358915   
     34. B(C  33,C  31)                  1.5307         0.372668   
     35. B(H  34,C  33)                  1.0918         0.357689   
     36. B(H  35,C  33)                  1.0910         0.358726   
     37. B(C  36,C  33)                  1.5334         0.368872   
     38. B(N  37,H   3)                  1.9125         0.015715   
     39. B(N  37,C  36)                  1.4636         0.427097   
     40. B(H  38,N  37)                  1.0157         0.423695   
     41. B(H  39,N  37)                  1.0163         0.422812   
     42. B(H  40,H  19)                  3.5465         0.000008   
     43. B(H  40,C  36)                  1.0923         0.357050   
     44. B(H  41,C  36)                  1.1014         0.345366   
     45. B(H  42,C  31)                  1.0927         0.356563   
     46. B(H  43,C  24)                  1.0953         0.353164   
     47. A(O   0,C   1,N   2)          124.3885         0.477493   
     48. A(O   0,C   1,C  24)          122.3820         0.430765   
     49. A(N   2,C   1,C  24)          113.2014         0.396604   
     50. A(H   3,N   2,C   4)          117.6427         0.338293   
     51. A(C   1,N   2,C   4)          123.2912         0.410558   
     52. A(C   1,N   2,H   3)          118.9934         0.360081   
     53. A(N   2,C   4,C  10)          111.4847         0.369586   
     54. A(N   2,C   4,C   5)          109.1787         0.374985   
     55. A(C   5,C   4,H   9)          109.7011         0.324021   
     56. A(N   2,C   4,H   9)          106.3827         0.332015   
     57. A(C   5,C   4,C  10)          112.3195         0.360356   
     58. A(H   9,C   4,C  10)          107.5821         0.319584   
     59. A(H   6,C   5,H   7)          109.0154         0.291790   
     60. A(C   4,C   5,H   8)          109.9069         0.325776   
     61. A(C   4,C   5,H   6)          110.3124         0.325757   
     62. A(C   4,C   5,H   7)          110.4984         0.325897   
     63. A(H   6,C   5,H   8)          108.5553         0.291686   
     64. A(H   7,C   5,H   8)          108.5034         0.291806   
     65. A(C   4,C  10,H  23)          108.1963         0.320583   
     66. A(C  11,C  10,H  23)          110.4393         0.330153   
     67. A(H  22,C  10,H  23)          108.4670         0.290448   
     68. A(C   4,C  10,C  11)          112.5601         0.366235   
     69. A(C  11,C  10,H  22)          109.3431         0.330160   
     70. A(C   4,C  10,H  22)          107.7171         0.320589   
     71. A(C  12,C  11,C  16)          118.5515         0.435174   
     72. A(C  10,C  11,C  16)          121.4008         0.405132   
     73. A(C  10,C  11,C  12)          120.0396         0.405127   
     74. A(C  11,C  12,C  13)          120.8896         0.437127   
     75. A(C  13,C  12,H  21)          119.8733         0.356967   
     76. A(C  11,C  12,H  21)          119.2322         0.355459   
     77. A(C  12,C  13,C  14)          120.0738         0.438659   
     78. A(C  14,C  13,H  20)          120.0223         0.356572   
     79. A(C  12,C  13,H  20)          119.9027         0.356907   
     80. A(C  15,C  14,H  19)          120.1654         0.356615   
     81. A(C  13,C  14,H  19)          120.2667         0.356648   
     82. A(C  13,C  14,C  15)          119.5633         0.438179   
     83. A(C  16,C  15,H  18)          119.8255         0.356601   
     84. A(C  14,C  15,H  18)          119.9598         0.356486   
     85. A(C  14,C  15,C  16)          120.2137         0.438287   
     86. A(C  15,C  16,H  17)          119.5830         0.356674   
     87. A(C  11,C  16,H  17)          119.7206         0.355423   
     88. A(C  11,C  16,C  15)          120.6913         0.436805   
     89. A(N  25,C  24,C  28)          109.8542         0.370827   
     90. A(C   1,C  24,C  28)          110.4679         0.360410   
     91. A(C   1,C  24,N  25)          112.5576         0.369992   
     92. A(C  28,C  24,H  43)          109.4310         0.322372   
     93. A(N  25,C  24,H  43)          107.5387         0.330611   
     94. A(C   1,C  24,H  43)          106.8685         0.321680   
     95. A(H  26,N  25,H  27)          106.0507         0.301047   
     96. A(C  24,N  25,H  27)          108.7481         0.337603   
     97. A(C  24,N  25,H  26)          109.5038         0.337872   
     98. A(H  30,C  28,C  31)          108.8691         0.324573   
     99. A(H  29,C  28,C  31)          109.0686         0.325335   
    100. A(C  24,C  28,C  31)          112.8390         0.363039   
    101. A(H  29,C  28,H  30)          108.1695         0.290811   
    102. A(C  24,C  28,H  30)          107.8410         0.323007   
    103. A(C  24,C  28,H  29)          109.9384         0.323764   
    104. A(H  32,C  31,C  33)          108.9306         0.324014   
    105. A(C  28,C  31,C  33)          114.1452         0.363960   
    106. A(C  28,C  31,H  32)          108.7504         0.324794   
    107. A(H  32,C  31,H  42)          107.9550         0.290239   
    108. A(C  28,C  31,H  42)          108.5015         0.324444   
    109. A(C  33,C  31,H  42)          108.3899         0.323665   
    110. A(H  35,C  33,C  36)          108.5834         0.323442   
    111. A(H  34,C  33,C  36)          108.7863         0.323289   
    112. A(C  31,C  33,C  36)          114.1206         0.362415   
    113. A(H  34,C  33,H  35)          107.2220         0.290358   
    114. A(C  31,C  33,H  35)          110.0358         0.323986   
    115. A(C  31,C  33,H  34)          107.8665         0.323832   
    116. A(H  40,C  36,H  41)          107.4446         0.288555   
    117. A(N  37,C  36,H  41)          111.2371         0.327299   
    118. A(C  33,C  36,H  41)          109.1423         0.321437   
    119. A(N  37,C  36,H  40)          107.4942         0.329101   
    120. A(C  33,C  36,H  40)          110.0009         0.323194   
    121. A(C  33,C  36,N  37)          111.4295         0.368663   
    122. A(H  38,N  37,H  39)          107.6709         0.301125   
    123. A(C  36,N  37,H  39)          109.3983         0.335559   
    124. A(C  36,N  37,H  38)          109.5709         0.335675   
    125. D(C   4,N   2,C   1,C  24)   -177.8618         0.035896   
    126. D(C   4,N   2,C   1,O   0)      0.2421         0.035896   
    127. D(H   3,N   2,C   1,O   0)   -176.5804         0.035896   
    128. D(H   3,N   2,C   1,C  24)      5.3156         0.035896   
    129. D(C   5,C   4,N   2,C   1)    135.2478         0.017845   
    130. D(C   5,C   4,N   2,H   3)    -47.8895         0.017845   
    131. D(H   9,C   4,N   2,H   3)   -166.2020         0.017845   
    132. D(C  10,C   4,N   2,C   1)   -100.0706         0.017845   
    133. D(H   9,C   4,N   2,C   1)     16.9352         0.017845   
    134. D(H   7,C   5,C   4,C  10)     57.6733         0.011526   
    135. D(H   6,C   5,C   4,C  10)    -62.9436         0.011526   
    136. D(H   6,C   5,C   4,H   9)    177.4633         0.011526   
    137. D(H   6,C   5,C   4,N   2)     61.2484         0.011526   
    138. D(H   7,C   5,C   4,N   2)   -178.1346         0.011526   
    139. D(H   7,C   5,C   4,H   9)    -61.9198         0.011526   
    140. D(H  22,C  10,C   4,C   5)   -168.3752         0.009848   
    141. D(H  22,C  10,C   4,H   9)    -47.5542         0.009848   
    142. D(H  22,C  10,C   4,N   2)     68.7215         0.009848   
    143. D(C  11,C  10,C   4,N   2)    -51.8925         0.009848   
    144. D(C  11,C  10,C   4,H   9)   -168.1681         0.009848   
    145. D(C  11,C  10,C   4,C   5)     71.0108         0.009848   
    146. D(C  16,C  11,C  10,H  22)    154.7868         0.012929   
    147. D(C  16,C  11,C  10,C   4)    -85.5378         0.012929   
    148. D(C  12,C  11,C  10,H  23)   -145.5418         0.012929   
    149. D(C  12,C  11,C  10,H  22)    -26.2611         0.012929   
    150. D(C  12,C  11,C  10,C   4)     93.4143         0.012929   
    151. D(H  21,C  12,C  11,C  16)   -178.1334         0.027000   
    152. D(H  21,C  12,C  11,C  10)      2.8849         0.027000   
    153. D(C  13,C  12,C  11,C  16)      1.0548         0.027000   
    154. D(C  13,C  12,C  11,C  10)   -177.9270         0.027000   
    155. D(C  14,C  13,C  12,C  11)      0.0814         0.028472   
    156. D(H  20,C  13,C  12,H  21)     -0.3337         0.028472   
    157. D(H  20,C  13,C  12,C  11)   -179.5167         0.028472   
    158. D(C  14,C  13,C  12,H  21)    179.2643         0.028472   
    159. D(H  19,C  14,C  13,H  20)     -0.5861         0.028138   
    160. D(H  19,C  14,C  13,C  12)    179.8164         0.028138   
    161. D(C  15,C  14,C  13,H  20)    178.6377         0.028138   
    162. D(C  15,C  14,C  13,C  12)     -0.9599         0.028138   
    163. D(H  18,C  15,C  14,H  19)      0.2966         0.028106   
    164. D(H  18,C  15,C  14,C  13)   -178.9280         0.028106   
    165. D(C  16,C  15,C  14,H  19)    179.9119         0.028106   
    166. D(C  16,C  15,C  14,C  13)      0.6873         0.028106   
    167. D(H  17,C  16,C  15,H  18)      0.9102         0.028220   
    168. D(H  17,C  16,C  15,C  14)   -178.7056         0.028220   
    169. D(C  11,C  16,C  15,H  18)   -179.9145         0.028220   
    170. D(C  11,C  16,C  15,C  14)      0.4697         0.028220   
    171. D(H  17,C  16,C  11,C  12)    177.8459         0.027004   
    172. D(H  17,C  16,C  11,C  10)     -3.1868         0.027004   
    173. D(C  15,C  16,C  11,C  12)     -1.3282         0.027004   
    174. D(C  15,C  16,C  11,C  10)    177.6390         0.027004   
    175. D(H  43,C  24,C   1,O   0)   -124.4912         0.009865   
    176. D(C  28,C  24,C   1,N   2)    -65.3060         0.009865   
    177. D(C  28,C  24,C   1,O   0)    116.5467         0.009865   
    178. D(N  25,C  24,C   1,N   2)    171.4921         0.009865   
    179. D(N  25,C  24,C   1,O   0)     -6.6551         0.009865   
    180. D(H  27,N  25,C  24,C  28)    -68.5708         0.016807   
    181. D(H  27,N  25,C  24,C   1)     54.9731         0.016807   
    182. D(H  26,N  25,C  24,H  43)     56.9470         0.016807   
    183. D(H  26,N  25,C  24,C  28)    175.9634         0.016807   
    184. D(H  26,N  25,C  24,C   1)    -60.4928         0.016807   
    185. D(H  29,C  28,C  24,H  43)    -85.1567         0.010788   
    186. D(H  29,C  28,C  24,N  25)    156.9954         0.010788   
    187. D(H  29,C  28,C  24,C   1)     32.2372         0.010788   
    188. D(H  30,C  28,C  24,H  43)    157.1185         0.010788   
    189. D(H  30,C  28,C  24,N  25)     39.2706         0.010788   
    190. D(H  30,C  28,C  24,C   1)    -85.4876         0.010788   
    191. D(C  33,C  31,C  28,H  30)    169.7147         0.011404   
    192. D(C  33,C  31,C  28,H  29)     51.8872         0.011404   
    193. D(C  33,C  31,C  28,C  24)    -70.5982         0.011404   
    194. D(H  32,C  31,C  28,H  30)    -68.4403         0.011404   
    195. D(H  32,C  31,C  28,H  29)    173.7322         0.011404   
    196. D(H  32,C  31,C  28,C  24)     51.2468         0.011404   
    197. D(H  35,C  33,C  31,H  42)   -172.7571         0.011093   
    198. D(H  35,C  33,C  31,H  32)    -55.5338         0.011093   
    199. D(H  35,C  33,C  31,C  28)     66.2121         0.011093   
    200. D(H  34,C  33,C  31,H  42)    -56.0989         0.011093   
    201. D(H  34,C  33,C  31,H  32)     61.1244         0.011093   
    202. D(H  34,C  33,C  31,C  28)   -177.1297         0.011093   
    203. D(H  40,C  36,C  33,H  35)   -150.3625         0.010881   
    204. D(H  40,C  36,C  33,H  34)     93.2587         0.010881   
    205. D(H  40,C  36,C  33,C  31)    -27.2303         0.010881   
    206. D(N  37,C  36,C  33,H  35)    -31.2501         0.010881   
    207. D(N  37,C  36,C  33,H  34)   -147.6289         0.010881   
    208. D(N  37,C  36,C  33,C  31)     91.8820         0.010881   
    209. D(H  39,N  37,C  36,H  41)    -53.5801         0.016663   
    210. D(H  39,N  37,C  36,H  40)   -170.9486         0.016663   
    211. D(H  39,N  37,C  36,C  33)     68.4566         0.016663   
    212. D(H  38,N  37,C  36,H  41)     64.2423         0.016663   
    213. D(H  38,N  37,C  36,H  40)    -53.1261         0.016663   
    214. D(H  38,N  37,C  36,C  33)   -173.7209         0.016663   
    -----------------------------------------------------------------

Number of atoms                         .... 44
Number of degrees of freedom            .... 214


         *************************************************************
         *                GEOMETRY OPTIMIZATION CYCLE   1            *
         *************************************************************
---------------------------------
CARTESIAN COORDINATES (ANGSTROEM)
---------------------------------
  O      2.116481    2.501352    0.634409
  C      1.736235    1.459301    0.132438
  N      0.530906    1.286314   -0.436900
  H      0.276746    0.360725   -0.786723
  C     -0.462531    2.331990   -0.524037
  C     -1.061248    2.338650   -1.926731
  H     -1.549177    1.388958   -2.133456
  H     -1.789007    3.139691   -2.026101
  H     -0.276385    2.492073   -2.663594
  H      0.065215    3.275783   -0.342947
  C     -1.542063    2.181481    0.575260
  C     -2.141205    0.807441    0.608826
  C     -1.617804   -0.159395    1.459635
  C     -2.129300   -1.444674    1.474195
  C     -3.175677   -1.784752    0.633132
  C     -3.717582   -0.825204   -0.205890
  C     -3.207077    0.461744   -0.213948
  H     -3.651172    1.207770   -0.857207
  H     -4.545743   -1.079074   -0.852387
  H     -3.575534   -2.788282    0.639814
  H     -1.715488   -2.181572    2.147602
  H     -0.809427    0.105628    2.125555
  H     -1.069679    2.393344    1.535770
  H     -2.315693    2.930297    0.397913
  C      2.629634    0.209675    0.051554
  N      3.990549    0.468092    0.490229
  H      4.407861    1.180608   -0.101029
  H      3.962682    0.861459    1.427536
  C      2.025431   -0.936170    0.874521
  H      0.939250   -0.873425    0.856414
  H      2.356267   -0.816255    1.908295
  C      2.453819   -2.313990    0.375688
  H      3.541142   -2.333304    0.289595
  C      1.842000   -2.710733   -0.970120
  H      2.172800   -3.724964   -1.202494
  H      2.219933   -2.058928   -1.759225
  C      0.309260   -2.672826   -0.997226
  N     -0.185521   -1.372228   -1.450685
  H     -1.196709   -1.342259   -1.359542
  H      0.039341   -1.249753   -2.434198
  H     -0.086480   -2.842897    0.006576
  H     -0.060820   -3.486764   -1.640317
  H      2.161586   -3.058567    1.120113
  H      2.672686   -0.082519   -1.003167

----------------------------
CARTESIAN COORDINATES (A.U.)
----------------------------
  NO LB      ZA    FRAG     MASS         X           Y           Z
   0 O     8.0000    0    15.999    3.999570    4.726870    1.198859
   1 C     6.0000    0    12.011    3.281009    2.757680    0.250271
   2 N     7.0000    0    14.007    1.003267    2.430780   -0.825621
   3 H     1.0000    0     1.008    0.522975    0.681672   -1.486690
   4 C     6.0000    0    12.011   -0.874057    4.406823   -0.990286
   5 C     6.0000    0    12.011   -2.005468    4.419409   -3.640994
   6 H     1.0000    0     1.008   -2.927520    2.624750   -4.031648
   7 H     1.0000    0     1.008   -3.380734    5.933156   -3.828777
   8 H     1.0000    0     1.008   -0.522292    4.709336   -5.033463
   9 H     1.0000    0     1.008    0.123239    6.190332   -0.648075
  10 C     6.0000    0    12.011   -2.914078    4.122402    1.087084
  11 C     6.0000    0    12.011   -4.046290    1.525842    1.150513
  12 C     6.0000    0    12.011   -3.057206   -0.301213    2.758310
  13 C     6.0000    0    12.011   -4.023794   -2.730038    2.785826
  14 C     6.0000    0    12.011   -6.001159   -3.372693    1.196446
  15 C     6.0000    0    12.011   -7.025213   -1.559410   -0.389076
  16 C     6.0000    0    12.011   -6.060497    0.872570   -0.404303
  17 H     1.0000    0     1.008   -6.899715    2.282355   -1.619886
  18 H     1.0000    0     1.008   -8.590209   -2.039154   -1.610778
  19 H     1.0000    0     1.008   -6.756781   -5.269089    1.209073
  20 H     1.0000    0     1.008   -3.241803   -4.122574    4.058380
  21 H     1.0000    0     1.008   -1.529595    0.199607    4.016717
  22 H     1.0000    0     1.008   -2.021401    4.522765    2.902184
  23 H     1.0000    0     1.008   -4.376026    5.537458    0.751947
  24 C     6.0000    0    12.011    4.969288    0.396229    0.097424
  25 N     7.0000    0    14.007    7.541044    0.884567    0.926399
  26 H     1.0000    0     1.008    8.329651    2.231026   -0.190916
  27 H     1.0000    0     1.008    7.488384    1.627921    2.697652
  28 C     6.0000    0    12.011    3.827511   -1.769105    1.652604
  29 H     1.0000    0     1.008    1.774926   -1.650533    1.618389
  30 H     1.0000    0     1.008    4.452700   -1.542499    3.606155
  31 C     6.0000    0    12.011    4.637046   -4.372807    0.709947
  32 H     1.0000    0     1.008    6.691788   -4.409305    0.547256
  33 C     6.0000    0    12.011    3.480876   -5.122543   -1.833261
  34 H     1.0000    0     1.008    4.105996   -7.039161   -2.272384
  35 H     1.0000    0     1.008    4.195066   -3.890811   -3.324453
  36 C     6.0000    0    12.011    0.584416   -5.050908   -1.884484
  37 N     7.0000    0    14.007   -0.350584   -2.593135   -2.741398
  38 H     1.0000    0     1.008   -2.261453   -2.536503   -2.569162
  39 H     1.0000    0     1.008    0.074344   -2.361691   -4.599968
  40 H     1.0000    0     1.008   -0.163424   -5.372296    0.012426
  41 H     1.0000    0     1.008   -0.114934   -6.589029   -3.099749
  42 H     1.0000    0     1.008    4.084805   -5.779855    2.116706
  43 H     1.0000    0     1.008    5.050644   -0.155939   -1.895711

--------------------------------
INTERNAL COORDINATES (ANGSTROEM)
--------------------------------
 O      0   0   0     0.000000000000     0.00000000     0.00000000
 C      1   0   0     1.217551272895     0.00000000     0.00000000
 N      2   1   0     1.344205451596   124.38845282     0.00000000
 H      3   2   1     1.021610012770   118.99343159   183.41956537
 C      3   2   1     1.444974057131   123.29115236     0.24214576
 C      5   3   2     1.525141697974   109.17866323   135.24781810
 H      6   5   3     1.087532332911   110.31241937    61.24842513
 H      6   5   3     1.086818528572   110.49836868   181.86539338
 H      6   5   3     1.087435147083   109.90688909   301.58322331
 H      5   3   2     1.096382046088   106.38272705    16.93522580
 C      5   3   2     1.548062492245   111.48468648   259.92941164
 C     11   5   3     1.499360974850   112.56008166   308.10752299
 C     12  11   5     1.390178612611   120.03961808    93.41429426
 C     13  12  11     1.383395224642   120.88955068   182.07301340
 C     14  13  12     1.384899036787   120.07377332     0.08135140
 C     15  14  13     1.385046311177   119.56334576   359.04014248
 C     16  15  14     1.384527448492   120.21365673     0.68731967
 H     17  16  15     1.080535521991   119.58303623   181.29438686
 H     16  15  14     1.080859488685   119.95975339   181.07203062
 H     15  14  13     1.080278853841   120.26667029   179.81636971
 H     14  13  12     1.080618368626   119.90270992   180.48329524
 H     13  12  11     1.080351868812   119.23215580     2.88486598
 H     11   5   3     1.091151151994   107.71709653    68.72146382
 H     11   5   3     1.091183028862   108.19627406   185.78950876
 C      2   1   3     1.538268131439   122.38195915   177.93632047
 N     25   2   1     1.453032824659   112.55764494   353.34490657
 H     26  25   2     1.015585748449   109.50375291   299.50724775
 H     26  25   2     1.016886288255   108.74805376    54.97309629
 C     25   2   1     1.534697087117   110.46785027   116.54674221
 H     29  25   2     1.088142461177   109.93842628    32.23715695
 H     29  25   2     1.092026299027   107.84101874   274.51238595
 C     29  25   2     1.526675579862   112.83900565   154.23404050
 H     32  29  25     1.090897120511   108.75044999    51.24684213
 C     32  29  25     1.530661614644   114.14518449   289.40184113
 H     34  32  29     1.091828585607   107.86648556   182.87030197
 H     34  32  29     1.091040482796   110.03576171    66.21205573
 C     34  32  29     1.533448520233   114.12058996   303.87154678
 N     37  34  32     1.463553098332   111.42954427    91.88200953
 H     38  37  34     1.015730056414   109.57094851   186.27906949
 H     38  37  34     1.016297521094   109.39827263    68.45662241
 H     37  34  32     1.092315117435   110.00085240   332.76966786
 H     37  34  32     1.101371915699   109.14225424   215.12163744
 H     32  29  25     1.092686779979   108.50145472   168.43297597
 H     25   2   1     1.095293999602   106.86852578   235.50882857

---------------------------
INTERNAL COORDINATES (A.U.)
---------------------------
 O      0   0   0     0.000000000000     0.00000000     0.00000000
 C      1   0   0     2.300838459779     0.00000000     0.00000000
 N      2   1   0     2.540180171240   124.38845282     0.00000000
 H      3   2   1     1.930563139807   118.99343159   183.41956537
 C      3   2   1     2.730605238599   123.29115236     0.24214576
 C      5   3   2     2.882100124594   109.17866323   135.24781810
 H      6   5   3     2.055138270985   110.31241937    61.24842513
 H      6   5   3     2.053789376273   110.49836868   181.86539338
 H      6   5   3     2.054954616388   109.90688909   301.58322331
 H      5   3   2     2.071861805255   106.38272705    16.93522580
 C      5   3   2     2.925414148539   111.48468648   259.92941164
 C     11   5   3     2.833381618355   112.56008166   308.10752299
 C     12  11   5     2.627056855069   120.03961808    93.41429426
 C     13  12  11     2.614238109547   120.88955068   182.07301340
 C     14  13  12     2.617079902659   120.07377332     0.08135140
 C     15  14  13     2.617358210922   119.56334576   359.04014248
 C     16  15  14     2.616377702546   120.21365673     0.68731967
 H     17  16  15     2.041916214537   119.58303623   181.29438686
 H     16  15  14     2.042528422865   119.95975339   181.07203062
 H     15  14  13     2.041431182026   120.26667029   179.81636971
 H     14  13  12     2.042072771989   119.90270992   180.48329524
 H     13  12  11     2.041569160325   119.23215580     2.88486598
 H     11   5   3     2.061976847982   107.71709653    68.72146382
 H     11   5   3     2.062037086532   108.19627406   185.78950876
 C      2   1   3     2.906905488958   122.38195915   177.93632047
 N     25   2   1     2.745834102203   112.55764494   353.34490657
 H     26  25   2     1.919178930083   109.50375291   299.50724775
 H     26  25   2     1.921636594142   108.74805376    54.97309629
 C     25   2   1     2.900157193178   110.46785027   116.54674221
 H     29  25   2     2.056291246315   109.93842628    32.23715695
 H     29  25   2     2.063630636200   107.84101874   274.51238595
 C     29  25   2     2.884998741284   112.83900565   154.23404050
 H     32  29  25     2.061496798048   108.75044999    51.24684213
 C     32  29  25     2.892531255383   114.14518449   289.40184113
 H     34  32  29     2.063257011983   107.86648556   182.87030197
 H     34  32  29     2.061767713505   110.03576171    66.21205573
 C     34  32  29     2.897797743708   114.12058996   303.87154678
 N     37  34  32     2.765714538300   111.42954427    91.88200953
 H     38  37  34     1.919451632615   109.57094851   186.27906949
 H     38  37  34     1.920523985450   109.39827263    68.45662241
 H     37  34  32     2.064176423894   110.00085240   332.76966786
 H     37  34  32     2.081291292263   109.14225424   215.12163744
 H     32  29  25     2.064878764316   108.50145472   168.43297597
 H     25   2   1     2.069805695375   106.86852578   235.50882857

---------------------
BASIS SET INFORMATION
---------------------
There are 4 groups of distinct atoms

 Group   1 Type O   : 11s6p2d contracted to 5s3p2d pattern {62111/411/11}
 Group   2 Type C   : 11s6p1d contracted to 5s3p1d pattern {62111/411/1}
 Group   3 Type N   : 11s6p1d contracted to 5s3p1d pattern {62111/411/1}
 Group   4 Type H   : 5s contracted to 3s pattern {311}

Atom   0O    basis set group =>   1
Atom   1C    basis set group =>   2
Atom   2N    basis set group =>   3
Atom   3H    basis set group =>   4
Atom   4C    basis set group =>   2
Atom   5C    basis set group =>   2
Atom   6H    basis set group =>   4
Atom   7H    basis set group =>   4
Atom   8H    basis set group =>   4
Atom   9H    basis set group =>   4
Atom  10C    basis set group =>   2
Atom  11C    basis set group =>   2
Atom  12C    basis set group =>   2
Atom  13C    basis set group =>   2
Atom  14C    basis set group =>   2
Atom  15C    basis set group =>   2
Atom  16C    basis set group =>   2
Atom  17H    basis set group =>   4
Atom  18H    basis set group =>   4
Atom  19H    basis set group =>   4
Atom  20H    basis set group =>   4
Atom  21H    basis set group =>   4
Atom  22H    basis set group =>   4
Atom  23H    basis set group =>   4
Atom  24C    basis set group =>   2
Atom  25N    basis set group =>   3
Atom  26H    basis set group =>   4
Atom  27H    basis set group =>   4
Atom  28C    basis set group =>   2
Atom  29H    basis set group =>   4
Atom  30H    basis set group =>   4
Atom  31C    basis set group =>   2
Atom  32H    basis set group =>   4
Atom  33C    basis set group =>   2
Atom  34H    basis set group =>   4
Atom  35H    basis set group =>   4
Atom  36C    basis set group =>   2
Atom  37N    basis set group =>   3
Atom  38H    basis set group =>   4
Atom  39H    basis set group =>   4
Atom  40H    basis set group =>   4
Atom  41H    basis set group =>   4
Atom  42H    basis set group =>   4
Atom  43H    basis set group =>   4
---------------------------------
AUXILIARY/J BASIS SET INFORMATION
---------------------------------
There are 4 groups of distinct atoms

 Group   1 Type O   : 8s3p3d contracted to 6s3p3d pattern {311111/111/111}
 Group   2 Type C   : 8s3p3d contracted to 6s3p3d pattern {311111/111/111}
 Group   3 Type N   : 8s3p3d contracted to 6s3p3d pattern {311111/111/111}
 Group   4 Type H   : 5s2p contracted to 3s1p pattern {311/2}

Atom   0O    basis set group =>   1
Atom   1C    basis set group =>   2
Atom   2N    basis set group =>   3
Atom   3H    basis set group =>   4
Atom   4C    basis set group =>   2
Atom   5C    basis set group =>   2
Atom   6H    basis set group =>   4
Atom   7H    basis set group =>   4
Atom   8H    basis set group =>   4
Atom   9H    basis set group =>   4
Atom  10C    basis set group =>   2
Atom  11C    basis set group =>   2
Atom  12C    basis set group =>   2
Atom  13C    basis set group =>   2
Atom  14C    basis set group =>   2
Atom  15C    basis set group =>   2
Atom  16C    basis set group =>   2
Atom  17H    basis set group =>   4
Atom  18H    basis set group =>   4
Atom  19H    basis set group =>   4
Atom  20H    basis set group =>   4
Atom  21H    basis set group =>   4
Atom  22H    basis set group =>   4
Atom  23H    basis set group =>   4
Atom  24C    basis set group =>   2
Atom  25N    basis set group =>   3
Atom  26H    basis set group =>   4
Atom  27H    basis set group =>   4
Atom  28C    basis set group =>   2
Atom  29H    basis set group =>   4
Atom  30H    basis set group =>   4
Atom  31C    basis set group =>   2
Atom  32H    basis set group =>   4
Atom  33C    basis set group =>   2
Atom  34H    basis set group =>   4
Atom  35H    basis set group =>   4
Atom  36C    basis set group =>   2
Atom  37N    basis set group =>   3
Atom  38H    basis set group =>   4
Atom  39H    basis set group =>   4
Atom  40H    basis set group =>   4
Atom  41H    basis set group =>   4
Atom  42H    basis set group =>   4
Atom  43H    basis set group =>   4


           ************************************************************
           *        Program running with 16 parallel MPI-processes    *
           *              working on a common directory               *
           ************************************************************
------------------------------------------------------------------------------
                             ORCA STARTUP CALCULATIONS
                           -- RI-GTO INTEGRALS CHOSEN --
------------------------------------------------------------------------------
------------------------------------------------------------------------------
                   ___                                                        
                  /   \      - P O W E R E D   B Y -                         
                 /     \                                                     
                 |  |  |   _    _      __       _____    __    __             
                 |  |  |  | |  | |    /  \     |  _  \  |  |  /  |          
                  \  \/   | |  | |   /    \    | | | |  |  | /  /          
                 / \  \   | |__| |  /  /\  \   | |_| |  |  |/  /          
                |  |  |   |  __  | /  /__\  \  |    /   |      \           
                |  |  |   | |  | | |   __   |  |    \   |  |\   \          
                \     /   | |  | | |  |  |  |  | |\  \  |  | \   \       
                 \___/    |_|  |_| |__|  |__|  |_| \__\ |__|  \__/        
                                                                              
                      - O R C A' S   B I G   F R I E N D -                    
                                      &                                       
                       - I N T E G R A L  F E E D E R -                       
                                                                              
 v1 FN, 2020, v2 2021, v3 2022-2024                                           
------------------------------------------------------------------------------


----------------------
SHARK INTEGRAL PACKAGE
----------------------

Number of atoms                             ...     44
Number of basis functions                   ...    441
Number of shells                            ...    247
Maximum angular momentum                    ...      2
Integral batch strategy                     ... SHARK/LIBINT Hybrid
RI-J (if used) integral strategy            ... SPLIT-RIJ (Revised 2003 algorithm where possible)
Printlevel                                  ...      1
Contraction scheme used                     ... SEGMENTED contraction
Prescreening option                         ... SCHWARTZ
   Thresh                                   ... 2.500e-11
   Tcut                                     ... 2.500e-12
   Tpresel                                  ... 2.500e-12 
Coulomb Range Separation                    ... NOT USED
Exchange Range Separation                   ... NOT USED
Multipole approximations                    ... NOT USED
Finite Nucleus Model                        ... NOT USED
CABS basis                                  ... NOT available
Auxiliary Coulomb fitting basis             ... AVAILABLE
   # of basis functions in Aux-J            ...    720
   # of shells in Aux-J                     ...    328
   Maximum angular momentum in Aux-J        ...      2
Auxiliary J/K fitting basis                 ... NOT available
Auxiliary Correlation fitting basis         ... NOT available
Auxiliary 'external' fitting basis          ... NOT available

Checking pre-screening integrals            ... done (  0.0 sec) Dimension = 247
Check shell pair data                       ... done (  0.0 sec)
Shell pair information
Shell pair cut-off parameter TPreSel        ...   2.5e-12
Total number of shell pairs                 ...     30628
Shell pairs after pre-screening             ...     24769
Total number of primitive shell pairs       ...    110239
Primitive shell pairs kept                  ...     57067
          la=0 lb=0:  11211 shell pairs
          la=1 lb=0:   8357 shell pairs
          la=1 lb=1:   1546 shell pairs
          la=2 lb=0:   2506 shell pairs
          la=2 lb=1:    993 shell pairs
          la=2 lb=2:    156 shell pairs

Calculating one electron integrals          ... done (  0.0 sec)
Calculating RI/J V-Matrix + Cholesky decomp.... done (  0.0 sec)
Calculating Nuclear repulsion               ... done (  0.0 sec) ENN=   1571.430806923796 Eh

Diagonalization of the overlap matrix:
Smallest eigenvalue                        ... 7.817e-06
Time for diagonalization                   ...    0.044 sec
Threshold for overlap eigenvalues          ... 1.000e-07
Number of eigenvalues below threshold      ... 0
Time for construction of square roots      ...    0.008 sec
Total time needed                          ...    0.055 sec

-------------------
DFT GRID GENERATION
-------------------

General Integration Accuracy     IntAcc      ... 4.959
Radial Grid Type                 RadialGrid  ... OptM3 with GC (2021)
Angular Grid (max. ang.)         AngularGrid ... 6 (Lebedev-590)
Angular grid pruning method      GridPruning ... 4 (adaptive)
Weight generation scheme         WeightScheme... mBecke (2022)
Basis function cutoff            BFCut       ... 1.0000e-11
Integration weight cutoff        WCut        ... 1.0000e-14
Partially contracted basis set               ... off
Rotationally invariant grid construction     ... off
Angular grids for H and He will be reduced by one unit
Diffuse basis detected: some atoms will have their outermost
                        angular grid increased by 1.

Total number of grid points                  ...   477962
Total number of batches                      ...     7491
Average number of points per batch           ...       63
Average number of grid points per atom       ...    10863
Initializing property integral containers    ... done (  0.0 sec)

SHARK setup successfully completed in   3.8 seconds

Maximum memory used throughout the entire STARTUP-calculation: 115.6 MB


           ************************************************************
           *        Program running with 16 parallel MPI-processes    *
           *              working on a common directory               *
           ************************************************************
-------------------------------------------------------------------------------
                                 ORCA GUESS
                   Start orbitals & Density for SCF / CASSCF
-------------------------------------------------------------------------------

------------
SCF SETTINGS
------------
Hamiltonian:
 Density Functional     Method          .... DFT(GTOs)
 Exchange Functional    Exchange        .... B973C
 Correlation Functional Correlation     .... B973C
 Gradients option       PostSCFGGA      .... off
 RI-approximation to the Coulomb term is turned on
   Number of AuxJ basis functions       .... 720


General Settings:
 Integral files         IntName         .... m1_00_Lisdexamfetamin-GitHubGFN2-B97-3C-TZ
 Hartree-Fock type      HFTyp           .... RHF
 Total Charge           Charge          ....    0
 Multiplicity           Mult            ....    1
 Number of Electrons    NEL             ....  144
 Basis Dimension        Dim             ....  441
 Nuclear Repulsion      ENuc            ....   1571.4308069238 Eh

Convergence Acceleration:
 AO-DIIS                CNVDIIS         .... on
   Start iteration      DIISMaxIt       ....    12
   Startup error        DIISStart       ....  0.200000
   # of expansion vecs  DIISMaxEq       ....     5
   Bias factor          DIISBfac        ....   1.050
   Max. coefficient     DIISMaxC        ....  10.000
 MO-DIIS                CNVKDIIS        .... off
 Trust-Rad. Augm. Hess. CNVTRAH         .... off
 SOSCF                  CNVSOSCF        .... on
   Start iteration      SOSCFMaxIt      ....   150
   Startup grad/error   SOSCFStart      ....  0.003300
   Hessian update       SOSCFHessUp     .... L-BFGS
 Level Shifting         CNVShift        .... on
   Level shift para.    LevelShift      ....    0.2500
   Turn off err/grad.   ShiftErr        ....    0.0010
 Zerner damping         CNVZerner       .... off
 Static damping         CNVDamp         .... on
   Fraction old density DampFac         ....    0.7000
   Max. Damping (<1)    DampMax         ....    0.9800
   Min. Damping (>=0)   DampMin         ....    0.0000
   Turn off err/grad.   DampErr         ....    0.1000

SCF Procedure:
 Maximum # iterations   MaxIter         ....   800
 SCF integral mode      SCFMode         .... Direct
   Integral package                     .... SHARK and LIBINT hybrid scheme
 Reset frequency        DirectResetFreq ....    20
 Integral Threshold     Thresh          ....  2.500e-11 Eh
 Primitive CutOff       TCut            ....  2.500e-12 Eh

Convergence Tolerance:
 Convergence Check Mode ConvCheckMode   .... Total+1el-Energy
 Convergence forced     ConvForced      .... 0
 Energy Change          TolE            ....  1.000e-08 Eh
 1-El. energy change                    ....  1.000e-05 Eh
 Orbital Gradient       TolG            ....  1.000e-05
 Orbital Rotation angle TolX            ....  1.000e-05
 DIIS Error             TolErr          ....  5.000e-07

--------------------------------
INITIAL GUESS: MINIMAL BASIS EHT
--------------------------------
The minimal basis has 120 functions
EHT matrix was diagonalized
Basis set overlap was calculated now projecting the orbitals
Using GuessMode=FMatrix for the initial guess
C*T matrix was formed
Effective Fockian was calculated
Effective Fockian was diagonalized
Initial density was built
                      ------------------
                      INITIAL GUESS DONE
                      ------------------
             **** ENERGY FILE WAS UPDATED (m1_00_Lisdexamfetamin-GitHubGFN2-B97-3C-TZ.en.tmp) ****
Finished Guess after   0.2 sec
Maximum memory used throughout the entire GUESS-calculation: 40.0 MB


           ************************************************************
           *        Program running with 16 parallel MPI-processes    *
           *              working on a common directory               *
           ************************************************************

-------------------------------------------------------------------------------------------
                                      ORCA LEAN-SCF
                              memory conserving SCF solver
-------------------------------------------------------------------------------------------

----------------------------------------D-I-I-S--------------------------------------------
Iteration    Energy (Eh)           Delta-E    RMSDP     MaxDP     DIISErr   Damp  Time(sec)
-------------------------------------------------------------------------------------------
               ***  Starting incremental Fock matrix formation  ***
    1    -823.2341360177606475     0.00e+00  5.01e-03  4.45e-01  4.70e-01  0.700   0.8
Warning: op=0 Small HOMO/LUMO gap (   0.085) - skipping pre-diagonalization
         Will do a full diagonalization
    2    -824.0119238487523035    -7.78e-01  4.58e-03  6.01e-01  3.32e-01  0.700   0.8
    3    -824.4657973819998915    -4.54e-01  2.67e-03  2.30e-01  2.32e-01  0.700   0.8
                               ***Turning on AO-DIIS***
    4    -824.7836244071272631    -3.18e-01  1.84e-03  7.93e-02  1.62e-01  0.700   0.8
    5    -825.0029516898880502    -2.19e-01  1.29e-03  5.69e-02  1.13e-01  0.700   0.7
    6    -825.1596206864946907    -1.57e-01  8.88e-04  4.00e-02  7.90e-02  0.700   0.7
    7    -825.2714393998217020    -1.12e-01  2.07e-03  8.92e-02  5.53e-02  0.000   0.7
    8    -825.5293134502430803    -2.58e-01  3.43e-04  4.42e-02  2.30e-02  0.000   0.7
    9    -825.5308761695041539    -1.56e-03  6.11e-05  3.31e-03  9.72e-03  0.000   0.7
                              *** Initializing SOSCF ***
---------------------------------------S-O-S-C-F--------------------------------------
Iteration    Energy (Eh)           Delta-E    RMSDP     MaxDP     MaxGrad    Time(sec)
--------------------------------------------------------------------------------------
   10    -825.5310197997382602    -1.44e-04  2.57e-05  1.04e-03  1.92e-03     0.7
               *** Restarting incremental Fock matrix formation ***
   11    -825.5310374224832231    -1.76e-05  3.79e-05  4.31e-03  1.58e-04     0.8
   12    -825.5310301418749077     7.28e-06  2.71e-05  3.22e-03  5.82e-04     0.6
   13    -825.5310385500024495    -8.41e-06  9.55e-06  4.20e-04  3.80e-05     0.6
   14    -825.5310383515156900     1.98e-07  5.70e-06  2.91e-04  4.98e-05     0.6
   15    -825.5310386554010620    -3.04e-07  5.73e-06  2.45e-04  1.08e-05     0.6
   16    -825.5310386309329260     2.45e-08  2.97e-06  1.62e-04  2.36e-05     0.6
   17    -825.5310386425244360    -1.16e-08  4.32e-06  1.92e-04  3.61e-06     0.6
   18    -825.5310386390356143     3.49e-09  2.58e-06  2.85e-04  4.73e-06     0.6
                 **** Energy Check signals convergence ****

               *****************************************************
               *                     SUCCESS                       *
               *           SCF CONVERGED AFTER  18 CYCLES          *
               *****************************************************

             **** ENERGY FILE WAS UPDATED (m1_00_Lisdexamfetamin-GitHubGFN2-B97-3C-TZ.en.tmp) ****

----------------
TOTAL SCF ENERGY
----------------

Total Energy       :       -825.53103863903561 Eh          -22463.84160 eV

Components:
Nuclear Repulsion  :       1571.43080692379635 Eh           42760.80617 eV
Electronic Energy  :      -2396.96184556283197 Eh          -65224.64777 eV
One Electron Energy:      -4242.57091145508639 Eh         -115446.22367 eV
Two Electron Energy:       1845.60906589225442 Eh           50221.57590 eV

Virial components:
Potential Energy   :      -1648.15950877543128 Eh          -44848.70030 eV
Kinetic Energy     :        822.62847013639555 Eh           22384.85870 eV
Virial Ratio       :          2.00352840754728

DFT components:
N(Alpha)           :       71.999954518404 electrons
N(Beta)            :       71.999954518404 electrons
N(Total)           :      143.999909036807 electrons
E(XC)              :     -119.593026482860 Eh       

---------------
SCF CONVERGENCE
---------------

  Last Energy change         ...   -3.4888e-09  Tolerance :   1.0000e-08
  Last MAX-Density change    ...    2.8475e-04  Tolerance :   1.0000e-07
  Last RMS-Density change    ...    2.5773e-06  Tolerance :   5.0000e-09
  Last DIIS Error            ...    1.9245e-03  Tolerance :   5.0000e-07
  Last Orbital Gradient      ...    4.7255e-06  Tolerance :   1.0000e-05
  Last Orbital Rotation      ...    7.4656e-06  Tolerance :   1.0000e-05


----------------
ORBITAL ENERGIES
----------------

  NO   OCC          E(Eh)            E(eV) 
   0   2.0000     -18.688115      -508.5295 
   1   2.0000     -13.985138      -380.5549 
   2   2.0000     -13.980754      -380.4357 
   3   2.0000     -13.952227      -379.6594 
   4   2.0000      -9.954867      -270.8857 
   5   2.0000      -9.923960      -270.0447 
   6   2.0000      -9.918934      -269.9079 
   7   2.0000      -9.909863      -269.6611 
   8   2.0000      -9.904748      -269.5219 
   9   2.0000      -9.901861      -269.4433 
  10   2.0000      -9.900605      -269.4091 
  11   2.0000      -9.900146      -269.3967 
  12   2.0000      -9.899005      -269.3656 
  13   2.0000      -9.896541      -269.2986 
  14   2.0000      -9.892457      -269.1874 
  15   2.0000      -9.887535      -269.0535 
  16   2.0000      -9.882594      -268.9191 
  17   2.0000      -9.879249      -268.8280 
  18   2.0000      -9.878791      -268.8156 
  19   2.0000      -0.938498       -25.5378 
  20   2.0000      -0.839208       -22.8360 
  21   2.0000      -0.826005       -22.4767 
  22   2.0000      -0.802793       -21.8451 
  23   2.0000      -0.797653       -21.7052 
  24   2.0000      -0.728337       -19.8190 
  25   2.0000      -0.720663       -19.6102 
  26   2.0000      -0.691419       -18.8145 
  27   2.0000      -0.687711       -18.7136 
  28   2.0000      -0.658388       -17.9156 
  29   2.0000      -0.627757       -17.0821 
  30   2.0000      -0.607845       -16.5403 
  31   2.0000      -0.571209       -15.5434 
  32   2.0000      -0.559238       -15.2177 
  33   2.0000      -0.549946       -14.9648 
  34   2.0000      -0.531402       -14.4602 
  35   2.0000      -0.515738       -14.0340 
  36   2.0000      -0.503203       -13.6929 
  37   2.0000      -0.472416       -12.8551 
  38   2.0000      -0.457772       -12.4566 
  39   2.0000      -0.446550       -12.1512 
  40   2.0000      -0.445163       -12.1135 
  41   2.0000      -0.426732       -11.6120 
  42   2.0000      -0.425655       -11.5827 
  43   2.0000      -0.420432       -11.4405 
  44   2.0000      -0.409375       -11.1397 
  45   2.0000      -0.404244       -11.0000 
  46   2.0000      -0.396466       -10.7884 
  47   2.0000      -0.386814       -10.5257 
  48   2.0000      -0.384774       -10.4702 
  49   2.0000      -0.375205       -10.2099 
  50   2.0000      -0.367064        -9.9883 
  51   2.0000      -0.358754        -9.7622 
  52   2.0000      -0.354453        -9.6452 
  53   2.0000      -0.346753        -9.4356 
  54   2.0000      -0.339502        -9.2383 
  55   2.0000      -0.334558        -9.1038 
  56   2.0000      -0.330835        -9.0025 
  57   2.0000      -0.327917        -8.9231 
  58   2.0000      -0.321108        -8.7378 
  59   2.0000      -0.317824        -8.6484 
  60   2.0000      -0.311004        -8.4629 
  61   2.0000      -0.302725        -8.2376 
  62   2.0000      -0.294156        -8.0044 
  63   2.0000      -0.288137        -7.8406 
  64   2.0000      -0.284851        -7.7512 
  65   2.0000      -0.275307        -7.4915 
  66   2.0000      -0.236753        -6.4424 
  67   2.0000      -0.230020        -6.2592 
  68   2.0000      -0.217262        -5.9120 
  69   2.0000      -0.202260        -5.5038 
  70   2.0000      -0.197346        -5.3700 
  71   2.0000      -0.182460        -4.9650 
  72   0.0000      -0.043897        -1.1945 
  73   0.0000      -0.042472        -1.1557 
  74   0.0000       0.007253         0.1974 
  75   0.0000       0.013477         0.3667 
  76   0.0000       0.022923         0.6238 
  77   0.0000       0.033468         0.9107 
  78   0.0000       0.038427         1.0456 
  79   0.0000       0.051055         1.3893 
  80   0.0000       0.053573         1.4578 
  81   0.0000       0.061127         1.6634 
  82   0.0000       0.068765         1.8712 
*Only the first 10 virtual orbitals were printed.

                    ********************************
                    * MULLIKEN POPULATION ANALYSIS *
                    ********************************

-----------------------
MULLIKEN ATOMIC CHARGES
-----------------------
   0 O :   -0.415485
   1 C :    0.267110
   2 N :   -0.356770
   3 H :    0.409538
   4 C :   -0.111689
   5 C :   -0.492002
   6 H :    0.160314
   7 H :    0.169285
   8 H :    0.175927
   9 H :    0.201985
  10 C :   -0.486927
  11 C :    0.018752
  12 C :   -0.035398
  13 C :   -0.247194
  14 C :   -0.157884
  15 C :   -0.191309
  16 C :   -0.159201
  17 H :    0.191521
  18 H :    0.161244
  19 H :    0.159674
  20 H :    0.161817
  21 H :    0.204517
  22 H :    0.203383
  23 H :    0.189795
  24 C :   -0.263060
  25 N :   -0.579633
  26 H :    0.305027
  27 H :    0.307110
  28 C :   -0.136333
  29 H :    0.088249
  30 H :    0.148350
  31 C :   -0.344389
  32 H :    0.175209
  33 C :   -0.287349
  34 H :    0.173920
  35 H :    0.149783
  36 C :   -0.266266
  37 N :   -0.800539
  38 H :    0.324993
  39 H :    0.317821
  40 H :    0.179968
  41 H :    0.158934
  42 H :    0.171806
  43 H :    0.155398
Sum of atomic charges:   -0.0000000

--------------------------------
MULLIKEN REDUCED ORBITAL CHARGES
--------------------------------
  0 O s       :     3.835442  s :     3.835442
      pz      :     1.465705  p :     4.546711
      px      :     1.683987
      py      :     1.397019
      dz2     :     0.004830  d :     0.033332
      dxz     :     0.005064
      dyz     :     0.009455
      dx2y2   :     0.010096
      dxy     :     0.003886

  1 C s       :     3.042185  s :     3.042185
      pz      :     0.786861  p :     2.578716
      px      :     0.953089
      py      :     0.838765
      dz2     :     0.016366  d :     0.111989
      dxz     :     0.018070
      dyz     :     0.014856
      dx2y2   :     0.031270
      dxy     :     0.031427

  2 N s       :     3.319060  s :     3.319060
      pz      :     1.555120  p :     3.996950
      px      :     1.191566
      py      :     1.250265
      dz2     :     0.004248  d :     0.040760
      dxz     :     0.007345
      dyz     :     0.004978
      dx2y2   :     0.013367
      dxy     :     0.010820

  3 H s       :     0.590462  s :     0.590462

  4 C s       :     3.165737  s :     3.165737
      pz      :     0.924832  p :     2.883467
      px      :     0.916795
      py      :     1.041840
      dz2     :     0.014623  d :     0.062485
      dxz     :     0.015100
      dyz     :     0.007107
      dx2y2   :     0.008427
      dxy     :     0.017229

  5 C s       :     3.245709  s :     3.245709
      pz      :     0.992869  p :     3.208990
      px      :     1.115911
      py      :     1.100209
      dz2     :     0.009401  d :     0.037303
      dxz     :     0.010433
      dyz     :     0.003173
      dx2y2   :     0.003541
      dxy     :     0.010756

  6 H s       :     0.839686  s :     0.839686

  7 H s       :     0.830715  s :     0.830715

  8 H s       :     0.824073  s :     0.824073

  9 H s       :     0.798015  s :     0.798015

 10 C s       :     3.278491  s :     3.278491
      pz      :     1.096597  p :     3.163967
      px      :     1.103106
      py      :     0.964264
      dz2     :     0.010839  d :     0.044469
      dxz     :     0.009782
      dyz     :     0.004476
      dx2y2   :     0.006241
      dxy     :     0.013132

 11 C s       :     3.324921  s :     3.324921
      pz      :     0.910919  p :     2.607303
      px      :     0.877016
      py      :     0.819368
      dz2     :     0.007912  d :     0.049024
      dxz     :     0.007715
      dyz     :     0.010629
      dx2y2   :     0.010986
      dxy     :     0.011781

 12 C s       :     2.935885  s :     2.935885
      pz      :     0.992409  p :     3.057717
      px      :     1.045418
      py      :     1.019890
      dz2     :     0.005137  d :     0.041797
      dxz     :     0.007610
      dyz     :     0.009530
      dx2y2   :     0.010002
      dxy     :     0.009517

 13 C s       :     3.176613  s :     3.176613
      pz      :     1.038803  p :     3.028519
      px      :     0.968932
      py      :     1.020785
      dz2     :     0.005201  d :     0.042062
      dxz     :     0.006478
      dyz     :     0.010781
      dx2y2   :     0.009484
      dxy     :     0.010118

 14 C s       :     3.125474  s :     3.125474
      pz      :     0.973119  p :     2.990581
      px      :     0.978419
      py      :     1.039043
      dz2     :     0.008437  d :     0.041828
      dxz     :     0.006877
      dyz     :     0.007095
      dx2y2   :     0.009880
      dxy     :     0.009540

 15 C s       :     3.139736  s :     3.139736
      pz      :     0.987719  p :     3.009485
      px      :     1.055442
      py      :     0.966324
      dz2     :     0.005047  d :     0.042088
      dxz     :     0.007555
      dyz     :     0.009414
      dx2y2   :     0.010178
      dxy     :     0.009893

 16 C s       :     3.047776  s :     3.047776
      pz      :     0.995578  p :     3.069548
      px      :     0.996763
      py      :     1.077206
      dz2     :     0.004821  d :     0.041877
      dxz     :     0.006438
      dyz     :     0.010357
      dx2y2   :     0.009642
      dxy     :     0.010619

 17 H s       :     0.808479  s :     0.808479

 18 H s       :     0.838756  s :     0.838756

 19 H s       :     0.840326  s :     0.840326

 20 H s       :     0.838183  s :     0.838183

 21 H s       :     0.795483  s :     0.795483

 22 H s       :     0.796617  s :     0.796617

 23 H s       :     0.810205  s :     0.810205

 24 C s       :     3.280380  s :     3.280380
      pz      :     1.111614  p :     2.921134
      px      :     0.863712
      py      :     0.945808
      dz2     :     0.015246  d :     0.061546
      dxz     :     0.007267
      dyz     :     0.007240
      dx2y2   :     0.012650
      dxy     :     0.019143

 25 N s       :     3.492274  s :     3.492274
      pz      :     1.178605  p :     4.049871
      px      :     1.304550
      py      :     1.566715
      dz2     :     0.006787  d :     0.037487
      dxz     :     0.004735
      dyz     :     0.011661
      dx2y2   :     0.009242
      dxy     :     0.005062

 26 H s       :     0.694973  s :     0.694973

 27 H s       :     0.692890  s :     0.692890

 28 C s       :     3.044193  s :     3.044193
      pz      :     1.051930  p :     3.048010
      px      :     1.055806
      py      :     0.940274
      dz2     :     0.012398  d :     0.044130
      dxz     :     0.003501
      dyz     :     0.008106
      dx2y2   :     0.014066
      dxy     :     0.006060

 29 H s       :     0.911751  s :     0.911751

 30 H s       :     0.851650  s :     0.851650

 31 C s       :     3.204023  s :     3.204023
      pz      :     0.978886  p :     3.095918
      px      :     1.126859
      py      :     0.990174
      dz2     :     0.009029  d :     0.044448
      dxz     :     0.005193
      dyz     :     0.013030
      dx2y2   :     0.012812
      dxy     :     0.004385

 32 H s       :     0.824791  s :     0.824791

 33 C s       :     3.142134  s :     3.142134
      pz      :     1.013524  p :     3.101677
      px      :     0.927749
      py      :     1.160405
      dz2     :     0.008869  d :     0.043538
      dxz     :     0.008560
      dyz     :     0.009142
      dx2y2   :     0.011132
      dxy     :     0.005835

 34 H s       :     0.826080  s :     0.826080

 35 H s       :     0.850217  s :     0.850217

 36 C s       :     3.252219  s :     3.252219
      pz      :     1.102140  p :     2.959244
      px      :     0.982471
      py      :     0.874633
      dz2     :     0.009845  d :     0.054803
      dxz     :     0.008296
      dyz     :     0.011069
      dx2y2   :     0.015092
      dxy     :     0.010502

 37 N s       :     3.591006  s :     3.591006
      pz      :     1.357968  p :     4.172827
      px      :     1.328319
      py      :     1.486540
      dz2     :     0.015247  d :     0.036706
      dxz     :     0.000975
      dyz     :     0.003201
      dx2y2   :     0.013865
      dxy     :     0.003418

 38 H s       :     0.675007  s :     0.675007

 39 H s       :     0.682179  s :     0.682179

 40 H s       :     0.820032  s :     0.820032

 41 H s       :     0.841066  s :     0.841066

 42 H s       :     0.828194  s :     0.828194

 43 H s       :     0.844602  s :     0.844602



                     *******************************
                     * LOEWDIN POPULATION ANALYSIS *
                     *******************************

----------------------
LOEWDIN ATOMIC CHARGES
----------------------
   0 O :   -0.581179
   1 C :    0.214678
   2 N :   -0.240540
   3 H :    0.299297
   4 C :   -0.103437
   5 C :   -0.421388
   6 H :    0.153826
   7 H :    0.156326
   8 H :    0.159278
   9 H :    0.185897
  10 C :   -0.272826
  11 C :   -0.074218
  12 C :   -0.159895
  13 C :   -0.169032
  14 C :   -0.178464
  15 C :   -0.172553
  16 C :   -0.168134
  17 H :    0.168059
  18 H :    0.164666
  19 H :    0.164847
  20 H :    0.165123
  21 H :    0.172166
  22 H :    0.173451
  23 H :    0.166645
  24 C :   -0.114755
  25 N :   -0.485243
  26 H :    0.261639
  27 H :    0.265309
  28 C :   -0.290069
  29 H :    0.162021
  30 H :    0.158431
  31 C :   -0.299582
  32 H :    0.165383
  33 C :   -0.309590
  34 H :    0.156348
  35 H :    0.150724
  36 C :   -0.213045
  37 N :   -0.537947
  38 H :    0.270387
  39 H :    0.258790
  40 H :    0.153798
  41 H :    0.133506
  42 H :    0.150260
  43 H :    0.161042

-------------------------------
LOEWDIN REDUCED ORBITAL CHARGES
-------------------------------
  0 O s       :     3.549625  s :     3.549625
      pz      :     1.490965  p :     4.734498
      px      :     1.702129
      py      :     1.541403
      dz2     :     0.041998  d :     0.297056
      dxz     :     0.037158
      dyz     :     0.058460
      dx2y2   :     0.080986
      dxy     :     0.078454

  1 C s       :     2.778668  s :     2.778668
      pz      :     0.821391  p :     2.761085
      px      :     0.933580
      py      :     1.006114
      dz2     :     0.032511  d :     0.245570
      dxz     :     0.040859
      dyz     :     0.032742
      dx2y2   :     0.070102
      dxy     :     0.069356

  2 N s       :     3.115876  s :     3.115876
      pz      :     1.506942  p :     4.046871
      px      :     1.256283
      py      :     1.283646
      dz2     :     0.007319  d :     0.077793
      dxz     :     0.013778
      dyz     :     0.008790
      dx2y2   :     0.025426
      dxy     :     0.022480

  3 H s       :     0.700703  s :     0.700703

  4 C s       :     2.875870  s :     2.875870
      pz      :     1.065419  p :     3.105496
      px      :     1.001811
      py      :     1.038266
      dz2     :     0.028183  d :     0.122071
      dxz     :     0.031450
      dyz     :     0.012459
      dx2y2   :     0.016723
      dxy     :     0.033256

  5 C s       :     2.986690  s :     2.986690
      pz      :     1.089403  p :     3.373304
      px      :     1.139280
      py      :     1.144622
      dz2     :     0.016772  d :     0.061394
      dxz     :     0.017335
      dyz     :     0.005700
      dx2y2   :     0.005123
      dxy     :     0.016463

  6 H s       :     0.846174  s :     0.846174

  7 H s       :     0.843674  s :     0.843674

  8 H s       :     0.840722  s :     0.840722

  9 H s       :     0.814103  s :     0.814103

 10 C s       :     2.932060  s :     2.932060
      pz      :     1.106624  p :     3.262663
      px      :     1.088209
      py      :     1.067829
[...]
 81:   1345.36   0.000346    1.75  0.000080  ( 0.007302  0.001192  0.005041)
 82:   1348.74   0.000770    3.89  0.000178  (-0.013174  0.001994  0.000753)
 83:   1359.94   0.000035    0.18  0.000008  (-0.002243 -0.000084  0.001733)
 84:   1367.29   0.000760    3.84  0.000173  (-0.011591 -0.001003 -0.006175)
 85:   1368.17   0.000099    0.50  0.000023  (-0.004272 -0.000055 -0.002106)
 86:   1380.46   0.000629    3.18  0.000142  (-0.001774 -0.010593 -0.005170)
 87:   1389.32   0.001156    5.84  0.000260  ( 0.009684  0.012714  0.002044)
 88:   1396.49   0.000715    3.61  0.000160  ( 0.008810  0.009054  0.000308)
 89:   1409.38   0.002027   10.24  0.000449  ( 0.003531 -0.007423  0.019526)
 90:   1414.05   0.001283    6.48  0.000283  (-0.010707  0.010851 -0.007126)
 91:   1419.47   0.000706    3.57  0.000155  (-0.009905 -0.006798 -0.003313)
 92:   1478.91   0.001134    5.73  0.000239  ( 0.013961 -0.004243  0.005134)
 93:   1488.97   0.000957    4.84  0.000201  (-0.000296 -0.004931  0.013274)
 94:   1492.65   0.000907    4.58  0.000190  ( 0.007065  0.003718 -0.011219)
 95:   1494.07   0.000861    4.35  0.000180  (-0.004945  0.001765  0.012336)
 96:   1496.08   0.001951    9.86  0.000407  (-0.012528  0.015704  0.001855)
 97:   1501.46   0.001599    8.08  0.000332  ( 0.006371  0.015424  0.007344)
 98:   1513.11   0.001129    5.70  0.000233  (-0.005520  0.007749  0.011927)
 99:   1517.13   0.000818    4.13  0.000168  (-0.008296 -0.002496  0.009653)
100:   1524.33   0.002159   10.91  0.000442  (-0.012229 -0.016331  0.005066)
101:   1609.14   0.034103  172.34  0.006614  ( 0.076051 -0.006111  0.028154)
102:   1612.65   0.000461    2.33  0.000089  (-0.009376 -0.000761 -0.000878)
103:   1636.18   0.000997    5.04  0.000190  ( 0.003821  0.012743 -0.003639)
104:   1683.25   0.005195   26.25  0.000963  (-0.013693 -0.006338 -0.027120)
105:   1704.91   0.000993    5.02  0.000182  ( 0.009720  0.002287  0.009062)
106:   1713.50   0.053463  270.18  0.009737  (-0.046552 -0.074220 -0.045398)
107:   2932.78   0.017948   90.70  0.001910  (-0.014722 -0.039105 -0.012803)
108:   2973.84   0.005380   27.19  0.000565  ( 0.006556 -0.020562  0.009941)
109:   2986.50   0.006473   32.71  0.000676  (-0.008853  0.007406  0.023306)
110:   2998.37   0.002638   13.33  0.000275  (-0.002810  0.004017 -0.015828)
111:   3000.48   0.004213   21.29  0.000438  (-0.003305 -0.007510 -0.019258)
112:   3005.30   0.006986   35.31  0.000725  ( 0.015568 -0.021574  0.004198)
113:   3015.27   0.009618   48.60  0.000995  (-0.003659 -0.016572 -0.026596)
114:   3022.06   0.011962   60.45  0.001235  ( 0.011932 -0.032709  0.004791)
115:   3030.98   0.001822    9.21  0.000188  ( 0.008460 -0.006578  0.008530)
116:   3035.96   0.002531   12.79  0.000260  ( 0.001830 -0.015926  0.001786)
117:   3036.97   0.010553   53.33  0.001084  ( 0.015940  0.008396 -0.027564)
118:   3060.39   0.002557   12.92  0.000261  ( 0.008843 -0.001440  0.013432)
119:   3074.21   0.011300   57.10  0.001147  (-0.015639  0.030039  0.000381)
120:   3075.07   0.005940   30.02  0.000603  ( 0.022596  0.007362  0.006165)
121:   3079.81   0.007171   36.24  0.000727  ( 0.021138  0.012445 -0.011178)
122:   3121.83   0.000301    1.52  0.000030  (-0.002182 -0.005013  0.000425)
123:   3125.78   0.000172    0.87  0.000017  (-0.002732 -0.002075 -0.002318)
124:   3134.58   0.004656   23.53  0.000464  (-0.000929 -0.020292  0.007137)
125:   3139.89   0.008492   42.92  0.000844  (-0.023070  0.001478 -0.017595)
126:   3148.23   0.002210   11.17  0.000219  ( 0.006716  0.013010 -0.002160)
127:   3243.85   0.073244  370.15  0.007046  (-0.015363 -0.077472 -0.028429)
128:   3419.83   0.000172    0.87  0.000016  ( 0.003518  0.000076 -0.001815)
129:   3420.71   0.001639    8.28  0.000150  ( 0.005368 -0.004734 -0.009914)
130:   3495.55   0.000336    1.70  0.000030  ( 0.001235 -0.005232 -0.001054)
131:   3504.86   0.001206    6.09  0.000107  (-0.006059  0.004192  0.007285)

* The epsilon (eps) is given for a Dirac delta lineshape.
** The dipole moment derivative (T) already includes vibrational overlap.

The first frequency considered to be a vibration is 6
The total number of vibrations considered is 126


--------------------------
THERMOCHEMISTRY AT 298.15K
--------------------------

Temperature         ...   298.15 K
Pressure            ...     1.00 atm
Total Mass          ...   263.38 AMU
Quasi RRHO          ...     True
Cut-Off Frequency   ...     1.00 cm^-1

Throughout the following assumptions are being made:
  (1) The electronic state is orbitally nondegenerate
  (2) There are no thermally accessible electronically excited states
  (3) Hindered rotations indicated by low frequency modes are not
      treated as such but are treated as vibrations and this may
      cause some error
  (4) All equations used are the standard statistical mechanics
      equations for an ideal gas
  (5) All vibrations are strictly harmonic

freq.      22.78  E(vib)   ...       0.56 
freq.      41.26  E(vib)   ...       0.54 
freq.      57.81  E(vib)   ...       0.51 
freq.      69.15  E(vib)   ...       0.50 
freq.      74.44  E(vib)   ...       0.49 
freq.      86.79  E(vib)   ...       0.48 
freq.      95.24  E(vib)   ...       0.47 
freq.     114.66  E(vib)   ...       0.44 
freq.     141.67  E(vib)   ...       0.41 
freq.     167.63  E(vib)   ...       0.38 
freq.     173.43  E(vib)   ...       0.38 
freq.     196.42  E(vib)   ...       0.36 
freq.     218.15  E(vib)   ...       0.33 
freq.     228.37  E(vib)   ...       0.32 
freq.     244.51  E(vib)   ...       0.31 
freq.     270.56  E(vib)   ...       0.29 
freq.     273.54  E(vib)   ...       0.29 
freq.     312.77  E(vib)   ...       0.25 
freq.     326.52  E(vib)   ...       0.24 
freq.     346.13  E(vib)   ...       0.23 
freq.     354.94  E(vib)   ...       0.22 
freq.     406.62  E(vib)   ...       0.19 
freq.     412.05  E(vib)   ...       0.19 
freq.     417.01  E(vib)   ...       0.18 
freq.     431.05  E(vib)   ...       0.18 
freq.     465.39  E(vib)   ...       0.16 
freq.     492.77  E(vib)   ...       0.14 
freq.     501.50  E(vib)   ...       0.14 
freq.     517.21  E(vib)   ...       0.13 
freq.     636.99  E(vib)   ...       0.09 
freq.     638.75  E(vib)   ...       0.09 
freq.     673.77  E(vib)   ...       0.08 
freq.     696.52  E(vib)   ...       0.07 
freq.     741.71  E(vib)   ...       0.06 
freq.     758.66  E(vib)   ...       0.06 
freq.     762.05  E(vib)   ...       0.06 
freq.     795.77  E(vib)   ...       0.05 
freq.     802.43  E(vib)   ...       0.05 
freq.     830.73  E(vib)   ...       0.04 
freq.     845.09  E(vib)   ...       0.04 
freq.     851.78  E(vib)   ...       0.04 
freq.     884.14  E(vib)   ...       0.04 
freq.     893.05  E(vib)   ...       0.03 
freq.     902.04  E(vib)   ...       0.03 
freq.     913.07  E(vib)   ...       0.03 
freq.     916.85  E(vib)   ...       0.03 
freq.     929.45  E(vib)   ...       0.03 
freq.     931.82  E(vib)   ...       0.03 
freq.     952.84  E(vib)   ...       0.03 
freq.     960.35  E(vib)   ...       0.03 
freq.     971.55  E(vib)   ...       0.03 
freq.    1015.48  E(vib)   ...       0.02 
freq.    1017.36  E(vib)   ...       0.02 
freq.    1027.81  E(vib)   ...       0.02 
freq.    1040.93  E(vib)   ...       0.02 
freq.    1046.29  E(vib)   ...       0.02 
freq.    1057.12  E(vib)   ...       0.02 
freq.    1079.48  E(vib)   ...       0.02 
freq.    1083.03  E(vib)   ...       0.02 
freq.    1115.53  E(vib)   ...       0.01 
freq.    1120.84  E(vib)   ...       0.01 
freq.    1143.35  E(vib)   ...       0.01 
freq.    1166.47  E(vib)   ...       0.01 
freq.    1175.14  E(vib)   ...       0.01 
freq.    1178.79  E(vib)   ...       0.01 
freq.    1180.29  E(vib)   ...       0.01 
freq.    1201.43  E(vib)   ...       0.01 
freq.    1222.13  E(vib)   ...       0.01 
freq.    1236.44  E(vib)   ...       0.01 
freq.    1252.39  E(vib)   ...       0.01 
freq.    1273.45  E(vib)   ...       0.01 
freq.    1280.77  E(vib)   ...       0.01 
freq.    1295.47  E(vib)   ...       0.01 
freq.    1314.04  E(vib)   ...       0.01 
freq.    1337.58  E(vib)   ...       0.01 
freq.    1345.36  E(vib)   ...       0.01 
freq.    1348.74  E(vib)   ...       0.01 
freq.    1359.94  E(vib)   ...       0.01 
freq.    1367.29  E(vib)   ...       0.01 
freq.    1368.17  E(vib)   ...       0.01 
freq.    1380.46  E(vib)   ...       0.01 
freq.    1389.32  E(vib)   ...       0.00 
freq.    1396.49  E(vib)   ...       0.00 
freq.    1409.38  E(vib)   ...       0.00 
freq.    1414.05  E(vib)   ...       0.00 
freq.    1419.47  E(vib)   ...       0.00 
freq.    1478.91  E(vib)   ...       0.00 
freq.    1488.97  E(vib)   ...       0.00 
freq.    1492.65  E(vib)   ...       0.00 
freq.    1494.07  E(vib)   ...       0.00 
freq.    1496.08  E(vib)   ...       0.00 
freq.    1501.46  E(vib)   ...       0.00 
freq.    1513.11  E(vib)   ...       0.00 
freq.    1517.13  E(vib)   ...       0.00 
freq.    1524.33  E(vib)   ...       0.00 
freq.    1609.14  E(vib)   ...       0.00 
freq.    1612.65  E(vib)   ...       0.00 
freq.    1636.18  E(vib)   ...       0.00 
freq.    1683.25  E(vib)   ...       0.00 
freq.    1704.91  E(vib)   ...       0.00 
freq.    1713.50  E(vib)   ...       0.00 
freq.    2932.78  E(vib)   ...       0.00 
freq.    2973.84  E(vib)   ...       0.00 
freq.    2986.50  E(vib)   ...       0.00 
freq.    2998.37  E(vib)   ...       0.00 
freq.    3000.48  E(vib)   ...       0.00 
freq.    3005.30  E(vib)   ...       0.00 
freq.    3015.27  E(vib)   ...       0.00 
freq.    3022.06  E(vib)   ...       0.00 
freq.    3030.98  E(vib)   ...       0.00 
freq.    3035.96  E(vib)   ...       0.00 
freq.    3036.97  E(vib)   ...       0.00 
freq.    3060.39  E(vib)   ...       0.00 
freq.    3074.21  E(vib)   ...       0.00 
freq.    3075.07  E(vib)   ...       0.00 
freq.    3079.81  E(vib)   ...       0.00 
freq.    3121.83  E(vib)   ...       0.00 
freq.    3125.78  E(vib)   ...       0.00 
freq.    3134.58  E(vib)   ...       0.00 
freq.    3139.89  E(vib)   ...       0.00 
freq.    3148.23  E(vib)   ...       0.00 
freq.    3243.85  E(vib)   ...       0.00 
freq.    3419.83  E(vib)   ...       0.00 
freq.    3420.71  E(vib)   ...       0.00 
freq.    3495.55  E(vib)   ...       0.00 
freq.    3504.86  E(vib)   ...       0.00 

------------
INNER ENERGY
------------

The inner energy is: U= E(el) + E(ZPE) + E(vib) + E(rot) + E(trans)
    E(el)   - is the total energy from the electronic structure calculation
              = E(kin-el) + E(nuc-el) + E(el-el) + E(nuc-nuc)
    E(ZPE)  - the the zero temperature vibrational energy from the frequency calculation
    E(vib)  - the the finite temperature correction to E(ZPE) due to population
              of excited vibrational states
    E(rot)  - is the rotational thermal energy
    E(trans)- is the translational thermal energy

Summary of contributions to the inner energy U:
Electronic energy                ...   -825.77806434 Eh
Zero point energy                ...      0.38810743 Eh     243.54 kcal/mol
Thermal vibrational correction   ...      0.01715988 Eh      10.77 kcal/mol
Thermal rotational correction    ...      0.00141627 Eh       0.89 kcal/mol
Thermal translational correction ...      0.00141627 Eh       0.89 kcal/mol
-----------------------------------------------------------------------
Total thermal energy                   -825.36996448 Eh


Summary of corrections to the electronic energy:
(perhaps to be used in another calculation)
Total thermal correction                  0.01999242 Eh      12.55 kcal/mol
Non-thermal (ZPE) correction              0.38810743 Eh     243.54 kcal/mol
-----------------------------------------------------------------------
Total correction                          0.40809986 Eh     256.09 kcal/mol


--------
ENTHALPY
--------

The enthalpy is H = U + kB*T
                kB is Boltzmann's constant
Total thermal energy              ...   -825.36996448 Eh 
Thermal Enthalpy correction       ...      0.00094421 Eh       0.59 kcal/mol
-----------------------------------------------------------------------
Total Enthalpy                    ...   -825.36902027 Eh


Note: Only C1 symmetry has been detected, increase convergence thresholds 
      if your molecule has a higher symmetry. Symmetry factor of 1.0 is   
      used for the rotational entropy correction. 
 

Note: Rotational entropy computed according to Herzberg 
Infrared and Raman Spectra, Chapter V,1, Van Nostrand Reinhold, 1945 
Point Group:  C1, Symmetry Number:   1  
Rotational constants in cm-1:     0.015525     0.010706     0.007812 

Vibrational entropy computed according to the QRRHO of S. Grimme
Chem.Eur.J. 2012 18 9955 using a reference frequency of 100.0 cm-1


-------
ENTROPY
-------

The entropy contributions are T*S = T*(S(el)+S(vib)+S(rot)+S(trans))
     S(el)   - electronic entropy
     S(vib)  - vibrational entropy
     S(rot)  - rotational entropy
     S(trans)- translational entropy
The entropies will be listed as multiplied by the temperature to get
units of energy

Electronic entropy                ...      0.00000000 Eh      0.00 kcal/mol
Vibrational entropy               ...      0.03026704 Eh     18.99 kcal/mol
Rotational entropy                ...      0.01590969 Eh      9.98 kcal/mol
Translational entropy             ...      0.02024283 Eh     12.70 kcal/mol
-----------------------------------------------------------------------
Final entropy term                ...      0.06641955 Eh     41.68 kcal/mol

In case the symmetry of your molecule has not been determined correctly
or in case you have a reason to use a different symmetry number we print 
out the resulting rotational entropy values for sn=1,12:

 non-linear molecules -----------------------------------
|  sn= 1 | S(rot)=       0.01590969 Eh      9.98 kcal/mol|
|  sn= 2 | S(rot)=       0.01525523 Eh      9.57 kcal/mol|
|  sn= 3 | S(rot)=       0.01487240 Eh      9.33 kcal/mol|
|  sn= 4 | S(rot)=       0.01460077 Eh      9.16 kcal/mol|
|  sn= 5 | S(rot)=       0.01439009 Eh      9.03 kcal/mol|
|  sn= 6 | S(rot)=       0.01421794 Eh      8.92 kcal/mol|
|  sn= 7 | S(rot)=       0.01407239 Eh      8.83 kcal/mol|
|  sn= 8 | S(rot)=       0.01394632 Eh      8.75 kcal/mol|
|  sn= 9 | S(rot)=       0.01383511 Eh      8.68 kcal/mol|
|  sn=10 | S(rot)=       0.01373563 Eh      8.62 kcal/mol|
|  sn=11 | S(rot)=       0.01364564 Eh      8.56 kcal/mol|
|  sn=12 | S(rot)=       0.01356348 Eh      8.51 kcal/mol|
 linear molecules ---------------------------------------
|  Dinfh | S(rot)=       0.00990704 Eh      6.22 kcal/mol|
|  Cinfv | S(rot)=       0.01056150 Eh      6.63 kcal/mol|
 --------------------------------------------------------


-------------------
GIBBS FREE ENERGY
-------------------

The Gibbs free energy is G = H - T*S

Total enthalpy                    ...   -825.36902027 Eh 
Total entropy correction          ...     -0.06641955 Eh    -41.68 kcal/mol
-----------------------------------------------------------------------
Final Gibbs free energy         ...   -825.43543982 Eh

For completeness - the Gibbs free energy minus the electronic energy
G-E(el)                           ...      0.34262452 Eh    215.00 kcal/mol


Maximum memory used throughout the entire PROP-calculation: 133.2 MB

--------------------------------
SUGGESTED CITATIONS FOR THIS RUN
--------------------------------

Below you find a list of papers that are relevant to this ORCA run
We neither can nor want to force you to cite these papers, but we appreciate if you do
You receive ORCA, which is the product of decades of hard work by many enthusiastic individuals, for free
The only thing we kindly ask in return is that you cite our papers,
We deeply appreciate it, if you show your appreciation for ORCA by not just citing the generic ORCA reference.

Please note that relegating all ORCA citations to the supporting information does *not* help us.
SI sections are not indexed - citations you put there will not count into any citation statistics
But we need these citations in order to attract the funding resources that allow us to do what we are doing

Therefore, if you are a happy ORCA user, please consider citing a few of the papers listed below in the main body of your paper

In addition to the list printed below, the program has created the file m1_00_Lisdexamfetamin-GitHubGFN2-B97-3C-TZ.bibtex that contains the list in bibtex format
You can import this file easily into all common literature databanks and citation aid programs


List of essential papers. We consider these as the minimum necessary citations

  1. Neese,F.
     Software update: the ORCA program system, version 5.0
     WIRES Comput. Molec. Sci., 2022 12(1)e1606
     doi.org/10.1002/wcms.1606

List of papers to cite with high priority. The work reported in these papers was absolutely
necessary for this run to complete.
Our perspective: the developers of density functionals and basis sets usually get cited in chemistry papers
Good! But without the algorithms to do something with them, the functionals or basis sets would not do anything.
Hence, in our opinion, the algorithm design and method developments papers are equally worthy of getting cited

  1. Neese,F.
     An improvement of the resolution of the identity approximation for the formation of the Coulomb matrix
     J. Comp. Chem., 2003 24(14)1740-1747
     doi.org/10.1002/jcc.10318
  2. Bykov,D.; Petrenko,T.; Izsak,R.; Kossmann,S.; Becker,U.; Valeev,E.; Neese,F.
     Efficient implementation of the analytic second derivatives of Hartree-Fock and hybrid DFT energies: a detailed analysis of different approximations
     Molec. Phys., 2015 113 1961-1977
     doi.org/10.1080/00268976.2015.1025114
  3. Neese,F.
     The SHARK Integral Generation and Digestion System
     J. Comp. Chem., 2022  1-16
     doi.org/10.1002/jcc.26942
  4. Grimme,S.; Antony,J.; Ehrlich,S.; Krieg,H.
     A consistent and accurate ab initio parametrization of density functional dispersion correction (DFT-D) for the 94 elements H-Pu
     J. Chem. Phys., 2010 132 154104
     doi.org/10.1063/1.3382344
  5. Grimme,S.; Ehrlich,S.; Goerigk,L.
     Effect of the damping function in dispersion corrected density functional theory
     J. Comput. Chem., 2011 32(7)1456-1465
     doi.org/10.1002/jcc.21759

List of suggested additional citations. These are papers that are important in the 'surrounding' of 
of this run, or papers that preceded the highly important papers. If you like your results we are grateful for a citation.

  1. Neese,F.
     The ORCA program system
     WIRES Comput. Molec. Sci., 2012 2(1)73-78
     doi.org/10.1002/wcms.81
  2. Neese,F.
     Software update: the ORCA program system, version 4.0
     WIRES Comput. Molec. Sci., 2018 8(1)1-6
     doi.org/10.1002/wcms.1327
  3. Neese,F.; Wennmohs,F.; Becker,U.; Riplinger,C.
     The ORCA quantum chemistry program package
     J. Chem. Phys., 2020 152 Art. No. L224108
     doi.org/10.1063/5.0004608

List of optional additional citations

  1. Neese,F.
     Approximate second-order SCF convergence for spin unrestricted wavefunctions
     Chem. Phys. Lett., 2000 325(1-3)93-98
     doi.org/10.1016/s0009-2614(00)00662-x

Timings for individual modules:

Sum of individual times          ...      580.895 sec (=   9.682 min)
Startup calculation              ...       57.730 sec (=   0.962 min)   9.9 %
SCF iterations                   ...      125.043 sec (=   2.084 min)  21.5 %
Property integrals               ...      132.897 sec (=   2.215 min)  22.9 %
SCF Response                     ...      129.209 sec (=   2.153 min)  22.2 %
Property calculations            ...       56.355 sec (=   0.939 min)   9.7 %
SCF Gradient evaluation          ...       79.384 sec (=   1.323 min)  13.7 %
Geometry relaxation              ...        0.277 sec (=   0.005 min)   0.0 %
                             ****ORCA TERMINATED NORMALLY****
TOTAL RUN TIME: 0 days 0 hours 9 minutes 44 seconds 915 msec
