
                                 *****************
                                 * O   R   C   A *
                                 *****************

                                            #,                                       
                                            ###                                      
                                            ####                                     
                                            #####                                    
                                            ######                                   
                                           ########,                                 
                                     ,,################,,,,,                         
                               ,,#################################,,                 
                          ,,##########################################,,             
                       ,#########################################, ''#####,          
                    ,#############################################,,   '####,        
                  ,##################################################,,,,####,       
                ,###########''''           ''''###############################       
              ,#####''   ,,,,##########,,,,          '''####'''          '####       
            ,##' ,,,,###########################,,,                        '##       
           ' ,,###''''                  '''############,,,                           
         ,,##''                                '''############,,,,        ,,,,,,###''
      ,#''                                            '''#######################'''  
     '                                                          ''''####''''         
             ,#######,   #######,   ,#######,      ##                                
            ,#'     '#,  ##    ##  ,#'     '#,    #''#        ,####,   ,####,        
            ##       ##  ##   ,#'  ##            #'  '#       #'       #'  '#        
            ##       ##  #######   ##           ,######,      #####,   #    #        
            '#,     ,#'  ##    ##  '#,     ,#' ,#      #,     #,   #   #,  ,#        
             '#######'   ##     ##  '#######'  #'      '#     '####' # '####'        



                #########################################################
                #                        -***-                          #
                #          Department of theory and spectroscopy        #
                #                                                       #
                #                      Frank Neese                      #
                #                                                       #
                #     Directorship, Architecture, Infrastructure        #
                #                    SHARK, DRIVERS                     #
                #        Core code/Algorithms in most modules           #
                #                                                       #
                #        Max Planck Institute fuer Kohlenforschung      #
                #                Kaiser Wilhelm Platz 1                 #
                #                 D-45470 Muelheim/Ruhr                 #
                #                      Germany                          #
                #                                                       #
                #                  All rights reserved                  #
                #                        -***-                          #
                #########################################################


                         Program Version 6.0.1  -  RELEASE   -


 With contributions from (in alphabetic order):
[Max-Planck-Institut fuer Kohlenforschung]                               
  Daniel Aravena         : Magnetic Suceptibility                        
  Michael Atanasov       : Ab Initio Ligand Field Theory (pilot matlab implementation)
  Alexander A. Auer      : GIAO ZORA, VPT2 properties, NMR spectrum      
  Ute Becker             : All parallelization in ORCA, NUMFREQ, NUMCALC 
  Giovanni Bistoni       : ED, misc. LED, open-shell LED, HFLD           
  Martin Brehm           : Molecular dynamics                            
  Dmytro Bykov           : pre 5.0 version of the SCF Hessian            
  Marcos Casanova-Páez   : Triplet and SCS-CIS(D). UHF-(DLPNO)-IP/EA/STEOM-CCSD. UHF-CVS-IP/STEOM-CCSD   
  Vijay G. Chilkuri      : MRCI spin determinant printing, contributions to CSF-ICE 
  Pauline Colinet        : FMM embedding                                 
  Dipayan Datta          : RHF DLPNO-CCSD density                        
  Achintya Kumar Dutta   : EOM-CC, STEOM-CC                              
  Nicolas Foglia         : Exact transition moments, OPA infrastructure, MCD improvements    
  Dmitry Ganyushin       : Spin-Orbit,Spin-Spin,Magnetic field MRCI      
  Miquel Garcia-Rates    : C-PCM and meta-GGA Hessian, CCSD/C-PCM, Gaussian charge scheme 
  Tiago L. C. Gouveia    : GS-ROHF, GS-ROCIS                             
  Yang Guo               : DLPNO-NEVPT2, F12-NEVPT2, CIM, IAO-localization        
  Andreas Hansen         : Spin unrestricted coupled pair/coupled cluster methods 
  Ingolf Harden          : AUTO-CI MPn and infrastructure                
  Benjamin Helmich-Paris : MC-RPA, TRAH-(SCF,CASSCF), AVAS, COSX integrals, SCF dyn. polar. 
  Lee Huntington         : MR-EOM, pCC                                   
  Robert Izsak           : Overlap fitted RIJCOSX, COSX-SCS-MP3, EOM     
  Riya Kayal             : Wick's Theorem for AUTO-CI, AUTO-CI UHF-CCSDT 
  Emily Kempfer          : AUTO-CI, RHF CISDT and CCSDT                  
  Christian Kollmar      : KDIIS, OOCD, Brueckner-CCSD(T), CCSD density, CASPT2, CASPT2-K, improved NEVPT2 
  Axel Koslowski         : Symmetry handling                             
  Simone Kossmann        : meta-GGA functionals, TD-DFT gradient, OOMP2, (MP2 Hessian; deprecated post 5.0) 
  Lucas Lang             : DCDCAS                                        
  Marvin Lechner         : AUTO-CI (C++ implementation), FIC-MRCC        
  Spencer Leger          : CASSCF response                               
  Dagmar Lenk            : GEPOL surface, SMD, ORCA-2-JSON               
  Dimitrios Liakos       : Extrapolation schemes; Compound Job, initial MDCI parallelization 
  Dimitrios Manganas     : Further ROCIS development; embedding schemes. LFT, Crystal Embedding 
  Dimitrios Pantazis     : SARC Basis sets                               
  Anastasios Papadopoulos: AUTO-CI, single reference methods and gradients 
  Taras Petrenko         : pre 6.0 DFT Hessian and TD-DFT gradient, (ASA, deprecated), ECA, 1-Electron XAS/XES, NRVS 
  Peter Pinski           : DLPNO-MP2, DLPNO-MP2 Gradient                 
  Christoph Reimann      : Effective Core Potentials                     
  Marius Retegan         : Local ZFS, SOC                                
  Christoph Riplinger    : Optimizer, TS searches, QM/MM, DLPNO-CCSD(T), (RO)-DLPNO pert. Triples 
  Michael Roemelt        : Original ROCIS implementation                 
  Masaaki Saitow         : Open-shell DLPNO-CCSD energy and density      
  Barbara Sandhoefer     : DKH picture change effects                    
  Kantharuban Sivalingam : CASSCF convergence/infrastructure, NEVPT2 and variants, FIC-MRCI 
  Bernardo de Souza      : ESD, SOC TD-DFT                               
  Georgi L. Stoychev     : AutoAux, RI-MP2 NMR, DLPNO-MP2 response, X2C  
  Van Anh Tran           : RI-MP2 g-tensors                              
  Willem Van den Heuvel  : Paramagnetic NMR                              
  Zikuan Wang            : NOTCH, Electric field optimization            
  Frank Wennmohs         : Technical directorship and infrastructure     
  Hang Xu                : AUTO-CI-Response properties                   
                                                                         
[FACCTs GmbH]                                                            
  Markus Bursch, Miquel Garcia-Rates, Christoph Riplinger, Bernardo de Souza, Georgi L. Stoychev 
                                                                 
  APM, Basis sets (HGBS, AHGBS, def-TZVP (Ac-Lr), def2-XVPD (La-Lu)), CI-OPT, improved COSX, DLPNO-Multilevel,           
  DOCKER, DRACO, updates on ESD, GOAT, IRC, LR-CPCM, MBIS, meta-GGA TD-DFT gradient, ML-optimized integration grids, 
  MM, NACMEs, nearIR, NEB, NEB-TS, NL-DFT gradient (VV10), 2- and 3-layer-ONIOM, interface openCOSMO-RS, QMMM,   
  Crystal-QMMM, SF, symmetry and pop. for TD-DFT, r2SCAN hybrids, SOLVATOR                                   
                                                                         
[Other institutions]                                                     
  V. Asgeirsson          : NEB                                           
  Christoph Bannwarth    : sTDA-DFT, sTD-DFT, PBEh-3c, B97-3c, D3        
  Sebastian Ehlert       : rSCAN, r2SCAN, r2SCAN-3c, D4, dhf basis sets  
  Marvin Friede          : D4 for Fr, Ra, Ac-Lr                          
  Lars Goerigk           : TD-DFT with DH, B97 family of functionals     
  Stefan Grimme          : VdW corrections, initial TS optimization, DFT functionals, gCP, sTDA/sTD-DF 
  Waldemar Hujo          : DFT-NL                                        
  H. Jonsson             : NEB                                           
  Holger Kruse           : gCP                                           
  Marcel Mueller         : wB97X-3c, vDZP basis set                      
  Hagen Neugebauer       : wr2SCAN                                       
  Tobias Risthaus        : range-separated hybrid DFT                    
  Lukas Wittmann         : regularized MP2, r2SCAN double-hybrids, wr2SCAN        
                                                                         
We gratefully acknowledge several colleagues who have allowed us to      
interface, adapt or use parts of their codes:                            
  Ed Valeev, F. Pavosevic, A. Kumar             : LibInt (2-el integral package), F12 methods 
  Garnet Chan, S. Sharma, J. Yang, R. Olivares  : DMRG                   
  Ulf Ekstrom                                   : XCFun DFT Library      
  Mihaly Kallay                                 : mrcc  (arbitrary order and MRCC methods)
  Frank Weinhold                                : gennbo (NPA and NBO analysis)           
  Simon Mueller                                 : openCOSMO-RS                            
  Christopher J. Cramer and Donald G. Truhlar   : smd solvation model                     
  S Lehtola, MJT Oliveira, MAL Marques          : LibXC Library                           
  Liviu Ungur et al                             : ANISO software                          


 Your calculation uses the libint2 library for the computation of 2-el integrals
 For citations please refer to: http://libint.valeyev.net

 Your ORCA version has been built with support for libXC version: 6.2.2
 For citations please refer to: https://libxc.gitlab.io

 This ORCA versions uses:
   CBLAS   interface :  Fast vector & matrix operations
   LAPACKE interface :  Fast linear algebra routines
   SCALAPACK package :  Parallel linear algebra routines
   Shared memory     :  Shared parallel matrices
   BLAS/LAPACK       :  OpenBLAS 0.3.27  USE64BITINT DYNAMIC_ARCH NO_AFFINITY Zen SINGLE_THREADED
        Core in use  :  Zen
   Copyright (c) 2011-2014, The OpenBLAS Project


NOTE: MaxCore=6000 MB was set to SCF,MP2,MDCI,CIPSI,MRCI and CIS
      => If you want to overwrite this, your respective input block should be placed after the MaxCore statement
Your calculation utilizes the atom-pairwise dispersion correction
with the Becke-Johnson damping scheme (D3BJ)


Your calculation employs the composite approach B97-3c by Grimme and coworkers.
For the correct reference, please check the publication list of the Grimme group:
http://www.thch.uni-bonn.de/tc/index.php?section=publikationen&subsection=grimme#2017
   

XCFun DFT library Copyright 2009-2010 Ulf Ekstrom and contributors.
See http://admol.org/xcfun for more information.
This is free software; see the source code for copying conditions.
There is ABSOLUTELY NO WARRANTY; not even for MERCHANTABILITY or FITNESS FOR A PARTICULAR PURPOSE.
For details see the documentation.
Scientific users of this library should cite U. Ekstrom, L. Visscher, R. Bast, A. J. Thorvaldsen and K. Ruud;
J.Chem.Theor.Comp. 2010, DOI: 10.1021/ct100117s
XCFun Version 0.99 

================================================================================

----- Orbital basis set information -----
Your calculation utilizes the basis: def2-mTZVP
----- AuxJ basis set information -----
Your calculation utilizes the basis: def2-mTZVP/J
================================================================================
                                        WARNINGS
                       Please study these warnings very carefully!
================================================================================


WARNING: Geometry Optimization
  ===> : Switching off AutoStart
         For restart on a previous wavefunction, please use MOREAD

================================================================================
                                       INPUT FILE
================================================================================
NAME = m1_00_Celecoxib-GitHubGFN2-B97-3C-TZ.inp
|  1> %pal nprocs 16 end
|  2> %MaxCore 6000
|  3> # put your comments here
|  4> ! B97-3C  OPT  FREQ DEFGRID3 NOTRAH
|  5> %scf MaxIter 800 end
|  6> %output
|  7> Print [P_Hirshfeld] 1
|  8> end
|  9> %geom
| 10> MaxIter 3000
| 11>  TolE 1e-6 #TolE 5e-6 Energy change (a.u.)
| 12>  TolRMSG 3e-5 #TolRMSG 1e-4 RMS gradient (a.u.)
| 13>  TolMaxG 1e-4 #TolMaxG 3e-3 Max. element of gradient (a.u.)
| 14>  TolRMSD 2e-3 #TolRMSD 2e-3 RMS displacement (a.u.)
| 15>  TolMaxD 4e-3 #TolMaxD 4e-3 Max. displacement (a.u.)
| 16> end
| 17> * xyz 0 1
| 18>  S         4.7809118894         1.0928891291        -0.0107122906
| 19>  O         5.2010852860         1.7215337445         1.2059882149
| 20>  O         5.3965378463        -0.1323905608        -0.4270557298
| 21>  N         4.9373342452         2.2073621250        -1.2601898899
| 22>  H         5.3091248324         3.0865373916        -0.9399892225
| 23>  H         5.4689105672         1.8393791749        -2.0318907182
| 24>  C         3.0102120414         0.8835865129         0.0125056648
| 25>  C         2.2376659767         1.7495402106         0.7605321279
| 26>  C         0.8632119313         1.5988692636         0.7642385989
| 27>  C         0.2827555972         0.5767033258         0.0171583088
| 28>  C         1.0684970498        -0.2748848558        -0.7558441811
| 29>  C         2.4426785336        -0.1192693516        -0.7478741794
| 30>  H         3.0869557963        -0.7676036604        -1.3190825178
| 31>  H         0.6090454398        -1.0435306914        -1.3568273464
| 32>  N        -1.1147736711         0.4536898907         0.0310340210
| 33>  C        -1.8794597654        -0.6727148901        -0.0482776991
| 34>  C        -3.1937954592        -0.2436067219        -0.0864786085
| 35>  C        -3.1123078651         1.1545943240        -0.0136175589
| 36>  N        -1.8555697411         1.5568475839         0.0591437979
| 37>  C        -4.2341463520         2.1332127372        -0.0162150689
| 38>  F        -5.4269526934         1.5160012494         0.0125163119
| 39>  F        -4.2406552664         2.9144140136        -1.1099394057
| 40>  F        -4.2079531769         2.9608650487         1.0396551709
| 41>  H        -4.0805378241        -0.8401131082        -0.1303476150
| 42>  C        -1.3738050088        -2.0378248442         0.0100206268
| 43>  C        -0.3751305299        -2.4000037431         0.9138263209
| 44>  C         0.0654538895        -3.7058674170         0.9750124505
| 45>  C        -0.4725650942        -4.6853653068         0.1454209809
| 46>  C        -1.4768802803        -4.3218162127        -0.7428137385
| 47>  C        -1.9282199559        -3.0174255985        -0.8094271775
| 48>  H        -2.7041865571        -2.7469620019        -1.5098151142
| 49>  H        -1.9120539647        -5.0683226997        -1.3911124954
| 50>  C         0.0115107923        -6.0985641039         0.2326752687
| 51>  H        -0.3193344355        -6.6790763088        -0.6245216378
| 52>  H         1.0979905546        -6.1295401514         0.2837158072
| 53>  H        -0.3768384443        -6.5697148110         1.1357419750
| 54>  H         0.8385275784        -3.9734994731         1.6801731801
| 55>  H         0.0453744597        -1.6589273272         1.5777025009
| 56>  H         0.2248504754         2.2586976884         1.3299872273
| 57>  H         2.7244396441         2.5159244502         1.3413745376
| 58> *
| 59> 
| 60> 
| 61> 
| 62> 
| 63>                          ****END OF INPUT****
================================================================================

                       *****************************
                       * Geometry Optimization Run *
                       *****************************

Geometry optimization settings:
Update method            Update   .... BFGS
Choice of coordinates    CoordSys .... (2022) Redundant Internals
Initial Hessian          InHess   .... Almloef's Model
Max. no of cycles        MaxIter  .... 3000

Convergence Tolerances:
Energy Change            TolE     ....  1.0000e-06 Eh
Max. Gradient            TolMAXG  ....  1.0000e-04 Eh/bohr
RMS Gradient             TolRMSG  ....  3.0000e-05 Eh/bohr
Max. Displacement        TolMAXD  ....  4.0000e-03 bohr
RMS Displacement         TolRMSD  ....  2.0000e-03 bohr
Strict Convergence                .... False

------------------------------------------------------------------------------
                        ORCA OPTIMIZATION COORDINATE SETUP
------------------------------------------------------------------------------

The optimization will be done in redundant internal coordinates (2022)
Making redundant internal coordinates   ...  (2022 redundants) done
Evaluating the initial hessian          ...  (Almloef) done
Evaluating the coordinates              ...  done
Calculating the B-matrix                .... done
Calculating the G-matrix                .... done
Diagonalizing the G-matrix              .... done
Small eigenvalue found = 1.550e-03
Small eigenvalue found = 8.670e-03
Small eigenvalue found = 1.248e-02
Small eigenvalue found = 1.391e-02
Small eigenvalue found = 2.753e-02
The first mode is                       ....   90
The number of degrees of freedom        ....  114

    -----------------------------------------------------------------
                    Redundant Internal Coordinates


    -----------------------------------------------------------------
         Definition                    Initial Value    Approx d2E/dq
    -----------------------------------------------------------------
      1. B(O   1,S   0)                  1.4325         1.290663   
      2. B(O   2,S   0)                  1.4331         1.288105   
      3. B(N   3,S   0)                  1.6816         0.516946   
      4. B(H   4,N   3)                  1.0068         0.437777   
      5. B(H   5,N   3)                  1.0067         0.437936   
      6. B(C   6,S   0)                  1.7832         0.397389   
      7. B(C   7,C   6)                  1.3807         0.646585   
      8. B(C   8,C   7)                  1.3827         0.641796   
      9. B(C   9,C   8)                  1.3928         0.618411   
     10. B(C  10,C   9)                  1.3929         0.618213   
     11. B(C  11,C  10)                  1.3830         0.641101   
     12. B(C  11,C   6)                  1.3806         0.646804   
     13. B(H  12,C  11)                  1.0778         0.376570   
     14. B(H  13,C  10)                  1.0785         0.375683   
     15. B(N  14,C   9)                  1.4030         0.533498   
     16. B(C  15,N  14)                  1.3638         0.616241   
     17. B(C  16,C  15)                  1.3831         0.640746   
     18. B(C  17,C  16)                  1.4025         0.596826   
     19. B(N  18,C  17)                  1.3215         0.719588   
     20. B(N  18,N  14)                  1.3291         0.626849   
     21. B(C  19,C  17)                  1.4887         0.434782   
     22. B(F  20,C  19)                  1.3433         0.617177   
     23. B(F  21,C  19)                  1.3441         0.615502   
     24. B(F  22,C  19)                  1.3418         0.620569   
     25. B(H  23,C  16)                  1.0696         0.388115   
     26. B(C  24,C  15)                  1.4569         0.488624   
     27. B(C  25,C  24)                  1.3948         0.613939   
     28. B(C  26,C  25)                  1.3795         0.649266   
     29. B(C  27,C  26)                  1.3918         0.620682   
     30. B(C  28,C  27)                  1.3892         0.626717   
     31. B(C  29,C  24)                  1.3923         0.619549   
     32. B(C  29,C  28)                  1.3819         0.643726   
     33. B(H  30,C  29)                  1.0797         0.373945   
     34. B(H  31,C  28)                  1.0802         0.373232   
     35. B(C  32,C  27)                  1.4964         0.422725   
     36. B(H  33,C  32)                  1.0868         0.364293   
     37. B(H  34,C  32)                  1.0881         0.362597   
     38. B(H  35,C  32)                  1.0901         0.359962   
     39. B(H  36,C  26)                  1.0801         0.373498   
     40. B(H  37,C  25)                  1.0802         0.373352   
     41. B(H  38,C   8)                  1.0784         0.375775   
     42. B(H  39,C   7)                  1.0778         0.376594   
     43. A(O   2,S   0,N   3)          108.1091         0.530311   
     44. A(O   2,S   0,C   6)          109.2693         0.507735   
     45. A(O   1,S   0,O   2)          119.7337         0.631855   
     46. A(O   1,S   0,C   6)          109.3726         0.507923   
     47. A(N   3,S   0,C   6)          100.3602         0.429561   
     48. A(O   1,S   0,N   3)          108.2383         0.530509   
     49. A(S   0,N   3,H   4)          112.1335         0.367044   
     50. A(S   0,N   3,H   5)          112.1130         0.367066   
     51. A(H   4,N   3,H   5)          111.5910         0.304407   
     52. A(C   7,C   6,C  11)          121.5995         0.440714   
     53. A(S   0,C   6,C  11)          119.0976         0.426137   
     54. A(S   0,C   6,C   7)          119.2792         0.426111   
     55. A(C   8,C   7,H  39)          121.6669         0.357691   
     56. A(C   6,C   7,C   8)          119.2957         0.440096   
     57. A(C   6,C   7,H  39)          119.0282         0.358143   
     58. A(C   7,C   8,H  38)          121.5443         0.357558   
     59. A(C   9,C   8,H  38)          118.9299         0.355312   
     60. A(C   7,C   8,C   9)          119.5252         0.436573   
     61. A(C  10,C   9,N  14)          120.9169         0.419567   
     62. A(C   8,C   9,N  14)          118.3055         0.419591   
     63. A(C   8,C   9,C  10)          120.7486         0.433640   
     64. A(C   9,C  10,C  11)          119.2438         0.436463   
     65. A(C   9,C  10,H  13)          120.3101         0.355278   
     66. A(C  11,C  10,H  13)          120.4454         0.357478   
     67. A(C  10,C  11,H  12)          121.5480         0.357621   
     68. A(C   6,C  11,H  12)          118.8885         0.358160   
     69. A(C   6,C  11,C  10)          119.5628         0.440037   
     70. A(C  15,N  14,N  18)          111.9779         0.425936   
     71. A(C   9,N  14,N  18)          118.8570         0.415118   
     72. A(C   9,N  14,C  15)          129.0781         0.416610   
     73. A(N  14,C  15,C  16)          106.1521         0.433311   
     74. A(C  16,C  15,C  24)          128.4334         0.418405   
     75. A(N  14,C  15,C  24)          125.2380         0.412824   
     76. A(C  15,C  16,C  17)          104.6344         0.433662   
     77. A(C  17,C  16,H  23)          127.3219         0.355118   
     78. A(C  15,C  16,H  23)          128.0182         0.359429   
     79. A(C  16,C  17,C  19)          127.6973         0.404700   
     80. A(C  16,C  17,N  18)          111.1965         0.439923   
     81. A(N  18,C  17,C  19)          121.1059         0.415643   
     82. A(N  14,N  18,C  17)          106.0353         0.437969   
     83. A(F  21,C  19,F  22)          106.3742         0.424147   
     84. A(F  20,C  19,F  22)          106.4930         0.424353   
     85. A(C  17,C  19,F  22)          112.9159         0.403115   
     86. A(F  20,C  19,F  21)          106.2692         0.423732   
     87. A(C  17,C  19,F  21)          112.7767         0.402533   
     88. A(C  17,C  19,F  20)          111.5341         0.402726   
     89. A(C  25,C  24,C  29)          118.9340         0.433243   
     90. A(C  15,C  24,C  29)          119.8344         0.415906   
     91. A(C  15,C  24,C  25)          121.1810         0.415234   
     92. A(C  24,C  25,C  26)          120.2128         0.436913   
     93. A(C  26,C  25,H  37)          119.8577         0.357869   
     94. A(C  24,C  25,H  37)          119.9241         0.354486   
     95. A(C  25,C  26,H  36)          119.4796         0.357892   
     96. A(C  25,C  26,C  27)          121.0833         0.437774   
     97. A(C  27,C  26,H  36)          119.4368         0.355166   
     98. A(C  28,C  27,C  32)          121.2200         0.406186   
     99. A(C  26,C  27,C  32)          120.3209         0.405492   
    100. A(C  26,C  27,C  28)          118.4515         0.434995   
    101. A(C  29,C  28,H  31)          119.4587         0.357328   
    102. A(C  27,C  28,H  31)          119.6119         0.355707   
    103. A(C  27,C  28,C  29)          120.9294         0.437861   
    104. A(C  28,C  29,H  30)          120.1617         0.357444   
    105. A(C  24,C  29,H  30)          119.4532         0.355128   
    106. A(C  24,C  29,C  28)          120.3782         0.436954   
    107. A(H  34,C  32,H  35)          107.7311         0.291138   
    108. A(H  33,C  32,H  35)          108.3052         0.291351   
    109. A(C  27,C  32,H  35)          109.9529         0.330974   
    110. A(H  33,C  32,H  34)          109.0104         0.291686   
    111. A(C  27,C  32,H  34)          110.6487         0.331374   
    112. A(C  27,C  32,H  33)          111.0987         0.331630   
    113. D(H   4,N   3,S   0,O   1)      1.3113         0.007025   
    114. D(H   4,N   3,S   0,C   6)    115.8486         0.007025   
    115. D(H   5,N   3,S   0,O   1)    127.7571         0.007025   
    116. D(H   4,N   3,S   0,O   2)   -129.7738         0.007025   
    117. D(H   5,N   3,S   0,O   2)     -3.3281         0.007025   
    118. D(C   7,C   6,S   0,O   1)     26.9487         0.004279   
    119. D(C   7,C   6,S   0,N   3)    -86.7253         0.004279   
    120. D(C  11,C   6,S   0,O   1)   -154.7947         0.004279   
    121. D(C  11,C   6,S   0,O   2)    -21.9621         0.004279   
    122. D(C   7,C   6,S   0,O   2)    159.7813         0.004279   
    123. D(H  39,C   7,C   6,C  11)    179.8292         0.029088   
    124. D(C   8,C   7,C   6,C  11)      0.9107         0.029088   
    125. D(C   8,C   7,C   6,S   0)    179.1221         0.029088   
    126. D(H  39,C   7,C   6,S   0)     -1.9594         0.029088   
    127. D(C   9,C   8,C   7,C   6)      0.1295         0.028629   
    128. D(H  38,C   8,C   7,C   6)   -179.5776         0.028629   
    129. D(H  38,C   8,C   7,H  39)      1.5335         0.028629   
    130. D(C   9,C   8,C   7,H  39)   -178.7594         0.028629   
    131. D(N  14,C   9,C   8,H  38)      0.2061         0.026455   
    132. D(N  14,C   9,C   8,C   7)   -179.5088         0.026455   
    133. D(C  10,C   9,C   8,H  38)    178.2662         0.026455   
    134. D(C  10,C   9,C   8,C   7)     -1.4487         0.026455   
    135. D(H  13,C  10,C   9,N  14)      0.0171         0.026437   
    136. D(H  13,C  10,C   9,C   8)   -177.9921         0.026437   
    137. D(C  11,C  10,C   9,N  14)    179.7380         0.026437   
    138. D(C  11,C  10,C   9,C   8)      1.7289         0.026437   
    139. D(H  12,C  11,C   6,C   7)    179.6972         0.029109   
    140. D(H  12,C  11,C   6,S   0)      1.4827         0.029109   
    141. D(C  10,C  11,C   6,C   7)     -0.6267         0.029109   
    142. D(C   6,C  11,C  10,C   9)     -0.6910         0.028563   
    143. D(C  10,C  11,C   6,S   0)   -178.8412         0.029109   
    144. D(H  12,C  11,C  10,H  13)     -1.3033         0.028563   
    145. D(H  12,C  11,C  10,C   9)    178.9762         0.028563   
    146. D(C   6,C  11,C  10,H  13)    179.0295         0.028563   
    147. D(N  18,N  14,C   9,C  10)   -141.2060         0.022616   
    148. D(N  18,N  14,C   9,C   8)     36.8507         0.022616   
    149. D(C  15,N  14,C   9,C  10)     35.1072         0.022616   
    150. D(C  15,N  14,C   9,C   8)   -146.8361         0.022616   
    151. D(C  24,C  15,N  14,N  18)   -174.8614         0.030721   
    152. D(C  24,C  15,N  14,C   9)      8.6204         0.030721   
    153. D(C  16,C  15,N  14,N  18)      0.6455         0.030721   
    154. D(C  16,C  15,N  14,C   9)   -175.8727         0.030721   
    155. D(H  23,C  16,C  15,C  24)     -3.4186         0.028529   
    156. D(H  23,C  16,C  15,N  14)   -178.7333         0.028529   
    157. D(C  17,C  16,C  15,C  24)    174.8349         0.028529   
    158. D(C  17,C  16,C  15,N  14)     -0.4798         0.028529   
    159. D(C  19,C  17,C  16,H  23)     -1.7442         0.024542   
    160. D(C  19,C  17,C  16,C  15)    179.9860         0.024542   
    161. D(N  18,C  17,C  16,H  23)    178.4539         0.024542   
    162. D(N  18,C  17,C  16,C  15)      0.1841         0.024542   
    163. D(N  14,N  18,C  17,C  19)   -179.6183         0.038988   
    164. D(N  14,N  18,C  17,C  16)      0.1986         0.038988   
    165. D(C  17,N  18,N  14,C  15)     -0.5274         0.033934   
    166. D(C  17,N  18,N  14,C   9)    176.3870         0.033934   
    167. D(F  22,C  19,C  17,C  16)    125.0779         0.013955   
    168. D(F  21,C  19,C  17,N  18)     65.4897         0.013955   
    169. D(F  21,C  19,C  17,C  16)   -114.2947         0.013955   
    170. D(F  20,C  19,C  17,N  18)   -175.0166         0.013955   
    171. D(F  20,C  19,C  17,C  16)      5.1990         0.013955   
    172. D(C  29,C  24,C  15,C  16)     44.3859         0.016257   
    173. D(C  29,C  24,C  15,N  14)   -141.1264         0.016257   
    174. D(C  25,C  24,C  15,C  16)   -132.9962         0.016257   
    175. D(C  25,C  24,C  15,N  14)     41.4914         0.016257   
    176. D(H  37,C  25,C  24,C  29)   -178.1794         0.026051   
    177. D(H  37,C  25,C  24,C  15)     -0.7742         0.026051   
    178. D(C  26,C  25,C  24,C  29)      0.9721         0.026051   
    179. D(C  26,C  25,C  24,C  15)    178.3773         0.026051   
    180. D(H  36,C  26,C  25,H  37)     -0.7735         0.029346   
    181. D(H  36,C  26,C  25,C  24)   -179.9255         0.029346   
    182. D(C  27,C  26,C  25,H  37)    179.0440         0.029346   
    183. D(C  27,C  26,C  25,C  24)     -0.1081         0.029346   
    184. D(C  32,C  27,C  26,H  36)      0.2367         0.026662   
    185. D(C  32,C  27,C  26,C  25)   -179.5808         0.026662   
    186. D(C  28,C  27,C  26,H  36)    179.2494         0.026662   
    187. D(C  28,C  27,C  26,C  25)     -0.5681         0.026662   
    188. D(H  31,C  28,C  27,C  32)     -0.6187         0.027215   
    189. D(H  31,C  28,C  27,C  26)   -179.6221         0.027215   
    190. D(C  29,C  28,C  27,C  32)    179.3784         0.027215   
    191. D(C  29,C  28,C  27,C  26)      0.3750         0.027215   
    192. D(H  30,C  29,C  28,C  27)    179.5272         0.028813   
    193. D(C  24,C  29,C  28,H  31)   -179.5084         0.028813   
    194. D(C  24,C  29,C  28,C  27)      0.4945         0.028813   
    195. D(H  30,C  29,C  24,C  25)    179.7966         0.026558   
    196. D(H  30,C  29,C  24,C  15)      2.3556         0.026558   
    197. D(C  28,C  29,C  24,C  25)     -1.1639         0.026558   
    198. D(H  30,C  29,C  28,H  31)     -0.4756         0.028813   
    199. D(C  28,C  29,C  24,C  15)   -178.6048         0.026558   
    200. D(H  35,C  32,C  27,C  26)     73.9613         0.013209   
    201. D(H  34,C  32,C  27,C  28)    136.0915         0.013209   
    202. D(H  34,C  32,C  27,C  26)    -44.9236         0.013209   
    203. D(H  33,C  32,C  27,C  28)     14.8587         0.013209   
    204. D(H  33,C  32,C  27,C  26)   -166.1564         0.013209   
    -----------------------------------------------------------------

Number of atoms                         .... 40
Number of degrees of freedom            .... 204


         *************************************************************
         *                GEOMETRY OPTIMIZATION CYCLE   1            *
         *************************************************************
---------------------------------
CARTESIAN COORDINATES (ANGSTROEM)
---------------------------------
  S      4.780912    1.092889   -0.010712
  O      5.201085    1.721534    1.205988
  O      5.396538   -0.132391   -0.427056
  N      4.937334    2.207362   -1.260190
  H      5.309125    3.086537   -0.939989
  H      5.468911    1.839379   -2.031891
  C      3.010212    0.883587    0.012506
  C      2.237666    1.749540    0.760532
  C      0.863212    1.598869    0.764239
  C      0.282756    0.576703    0.017158
  C      1.068497   -0.274885   -0.755844
  C      2.442679   -0.119269   -0.747874
  H      3.086956   -0.767604   -1.319083
  H      0.609045   -1.043531   -1.356827
  N     -1.114774    0.453690    0.031034
  C     -1.879460   -0.672715   -0.048278
  C     -3.193795   -0.243607   -0.086479
  C     -3.112308    1.154594   -0.013618
  N     -1.855570    1.556848    0.059144
  C     -4.234146    2.133213   -0.016215
  F     -5.426953    1.516001    0.012516
  F     -4.240655    2.914414   -1.109939
  F     -4.207953    2.960865    1.039655
  H     -4.080538   -0.840113   -0.130348
  C     -1.373805   -2.037825    0.010021
  C     -0.375131   -2.400004    0.913826
  C      0.065454   -3.705867    0.975012
  C     -0.472565   -4.685365    0.145421
  C     -1.476880   -4.321816   -0.742814
  C     -1.928220   -3.017426   -0.809427
  H     -2.704187   -2.746962   -1.509815
  H     -1.912054   -5.068323   -1.391112
  C      0.011511   -6.098564    0.232675
  H     -0.319334   -6.679076   -0.624522
  H      1.097991   -6.129540    0.283716
  H     -0.376838   -6.569715    1.135742
  H      0.838528   -3.973499    1.680173
  H      0.045374   -1.658927    1.577703
  H      0.224850    2.258698    1.329987
  H      2.724440    2.515924    1.341375

----------------------------
CARTESIAN COORDINATES (A.U.)
----------------------------
  NO LB      ZA    FRAG     MASS         X           Y           Z
   0 S    16.0000    0    32.060    9.034614    2.065261   -0.020243
   1 O     8.0000    0    15.999    9.828627    3.253227    2.278987
   2 O     8.0000    0    15.999   10.197979   -0.250182   -0.807018
   3 N     7.0000    0    14.007    9.330210    4.171310   -2.381414
   4 H     1.0000    0     1.008   10.032792    5.832710   -1.776322
   5 H     1.0000    0     1.008   10.334743    3.475923   -3.839717
   6 C     6.0000    0    12.011    5.688476    1.669737    0.023632
   7 C     6.0000    0    12.011    4.228576    3.306152    1.437197
   8 C     6.0000    0    12.011    1.631234    3.021425    1.444202
   9 C     6.0000    0    12.011    0.534331    1.089811    0.032425
  10 C     6.0000    0    12.011    2.019167   -0.519457   -1.428339
  11 C     6.0000    0    12.011    4.615993   -0.225386   -1.413277
  12 H     1.0000    0     1.008    5.833501   -1.450561   -2.492705
  13 H     1.0000    0     1.008    1.150929   -1.971987   -2.564032
  14 N     7.0000    0    14.007   -2.106617    0.857350    0.058646
  15 C     6.0000    0    12.011   -3.551664   -1.271247   -0.091232
  16 C     6.0000    0    12.011   -6.035399   -0.460350   -0.163421
  17 C     6.0000    0    12.011   -5.881410    2.181867   -0.025733
  18 N     7.0000    0    14.007   -3.506519    2.942016    0.111766
  19 C     6.0000    0    12.011   -8.001377    4.031188   -0.030642
  20 F     9.0000    0    18.998  -10.255454    2.864827    0.023652
  21 F     9.0000    0    18.998   -8.013677    5.507444   -2.097482
  22 F     9.0000    0    18.998   -7.951879    5.595224    1.964664
  23 H     1.0000    0     1.008   -7.711099   -1.587584   -0.246321
  24 C     6.0000    0    12.011   -2.596115   -3.850931    0.018936
  25 C     6.0000    0    12.011   -0.708894   -4.535350    1.726881
  26 C     6.0000    0    12.011    0.123690   -7.003075    1.842507
  27 C     6.0000    0    12.011   -0.893019   -8.854057    0.274806
  28 C     6.0000    0    12.011   -2.790899   -8.167049   -1.403715
  29 C     6.0000    0    12.011   -3.643808   -5.702108   -1.529596
  30 H     1.0000    0     1.008   -5.110172   -5.191006   -2.853137
  31 H     1.0000    0     1.008   -3.613258   -9.577742   -2.628822
  32 C     6.0000    0    12.011    0.021752  -11.524616    0.439693
  33 H     1.0000    0     1.008   -0.603455  -12.621625   -1.180175
  34 H     1.0000    0     1.008    2.074901  -11.583152    0.536145
  35 H     1.0000    0     1.008   -0.712121  -12.414962    2.146241
  36 H     1.0000    0     1.008    1.584587   -7.508826    3.175067
  37 H     1.0000    0     1.008    0.085745   -3.134918    2.981426
  38 H     1.0000    0     1.008    0.424906    4.268320    2.513312
  39 H     1.0000    0     1.008    5.148445    4.754408    2.534831

--------------------------------
INTERNAL COORDINATES (ANGSTROEM)
--------------------------------
 S      0   0   0     0.000000000000     0.00000000     0.00000000
 O      1   0   0     1.432515220082     0.00000000     0.00000000
 O      1   2   0     1.433055301325   119.73365061     0.00000000
 N      1   2   3     1.681580293396   108.23825692   235.59055265
 H      4   1   2     1.006829607002   112.13352754     1.31132595
 H      4   1   2     1.006730850860   112.11302924   127.75706852
 C      1   2   3     1.783178232906   109.37256687   127.13440508
 C      7   1   2     1.380668974860   119.27916599    26.94870991
 C      8   7   1     1.382692805765   119.29574441   179.12209405
 C      9   8   7     1.392796367044   119.52523911     0.12952218
 C     10   9   8     1.392883667349   120.74864166   358.55134727
 C      7   1   2     1.380576573357   119.09760525   205.20526832
 H     12   7   1     1.077826300040   118.88845728     1.48267193
 H     11  10   9     1.078467879675   120.31014177   182.00792386
 N     10   9   8     1.403001388581   118.30549738   180.49122332
 C     15  10   9     1.363753240865   129.07806720   213.16388681
 C     16  15  10     1.383138259717   106.15208286   184.12730070
 C     17  16  15     1.402467513099   104.63444131   359.52016186
 N     18  17  16     1.321549322749   111.19652315     0.18405482
 C     18  17  16     1.488698201921   127.69732430   179.98602103
 F     20  18  17     1.343340046674   111.53410791     5.19904626
 F     20  18  17     1.344079880485   112.77669248   245.70530051
 F     20  18  17     1.341848126447   112.91594146   125.07786413
 H     17  16  15     1.069605712558   128.01818095   181.26667511
 C     16  15  10     1.456918190722   125.23796057     8.62040304
 C     25  16  15     1.394772025208   121.18096186    41.49142825
 C     26  25  16     1.379542789436   120.21283084   178.37728658
 C     27  26  25     1.391798314907   121.08330955   359.89188352
 C     28  27  26     1.389164444405   118.45147846   359.43191770
 C     29  28  27     1.381875438467   120.92939974     0.37501397
 H     30  29  28     1.079730515054   120.16168479   179.52718485
 H     29  28  27     1.080249669718   119.61186273   180.37785030
 C     28  27  26     1.496353439116   120.32094919   180.41922306
 H     33  28  27     1.086848435298   111.09866534   193.84359495
 H     33  28  27     1.088118985211   110.64869754   315.07643292
 H     33  28  27     1.090104396100   109.95285780    73.96126384
 H     27  26  25     1.080056248763   119.47959558   180.07447772
 H     26  25  16     1.080162155814   119.92407829   359.22578095
 H      9   8   7     1.078401784628   121.54425077   180.42237664
 H      8   7   1     1.077808568758   119.02817846   358.04058770

---------------------------
INTERNAL COORDINATES (A.U.)
---------------------------
 S      0   0   0     0.000000000000     0.00000000     0.00000000
 O      1   0   0     2.707061448628     0.00000000     0.00000000
 O      1   2   0     2.708082054268   119.73365061     0.00000000
 N      1   2   3     3.177726226717   108.23825692   235.59055265
 H      4   1   2     1.902632220757   112.13352754     1.31132595
 H      4   1   2     1.902445598696   112.11302924   127.75706852
 C      1   2   3     3.369718508161   109.37256687   127.13440508
 C      7   1   2     2.609086244088   119.27916599    26.94870991
 C      8   7   1     2.612910730239   119.29574441   179.12209405
 C      9   8   7     2.632003694034   119.52523911     0.12952218
 C     10   9   8     2.632168667701   120.74864166   358.55134727
 C      7   1   2     2.608911630553   119.09760525   205.20526832
 H     12   7   1     2.036796527012   118.88845728     1.48267193
 H     11  10   9     2.038008936817   120.31014177   182.00792386
 N     10   9   8     2.651288389929   118.30549738   180.49122332
 C     15  10   9     2.577120139483   129.07806720   213.16388681
 C     16  15  10     2.613752516213   106.15208286   184.12730070
 C     17  16  15     2.650279511478   104.63444131   359.52016186
 N     18  17  16     2.497366292465   111.19652315     0.18405482
 C     18  17  16     2.813231897691   127.69732430   179.98602103
 F     20  18  17     2.538544792943   111.53410791     5.19904626
 F     20  18  17     2.539942876230   112.77669248   245.70530051
 F     20  18  17     2.535725472300   112.91594146   125.07786413
 H     17  16  15     2.021261868012   128.01818095   181.26667511
 C     16  15  10     2.753176379993   125.23796057     8.62040304
 C     25  16  15     2.635737146897   121.18096186    41.49142825
 C     26  25  16     2.606958062060   120.21283084   178.37728658
 C     27  26  25     2.630117648827   121.08330955   359.89188352
 C     28  27  26     2.625140354907   118.45147846   359.43191770
 C     29  28  27     2.611366129896   120.92939974     0.37501397
 H     30  29  28     2.040394971890   120.16168479   179.52718485
 H     29  28  27     2.041376032026   119.61186273   180.37785030
 C     28  27  26     2.827698199481   120.32094919   180.41922306
 H     33  28  27     2.053845891793   111.09866534   193.84359495
 H     33  28  27     2.056246883169   110.64869754   315.07643292
 H     33  28  27     2.059998766012   109.95285780    73.96126384
 H     27  26  25     2.041010519392   119.47959558   180.07447772
 H     26  25  16     2.041210654715   119.92407829   359.22578095
 H      9   8   7     2.037884035279   121.54425077   180.42237664
 H      8   7   1     2.036763019746   119.02817846   358.04058770

---------------------
BASIS SET INFORMATION
---------------------
There are 6 groups of distinct atoms

 Group   1 Type S   : 14s9p1d contracted to 5s4p1d pattern {73211/6111/1}
 Group   2 Type O   : 11s6p2d contracted to 5s3p2d pattern {62111/411/11}
 Group   3 Type N   : 11s6p1d contracted to 5s3p1d pattern {62111/411/1}
 Group   4 Type H   : 5s contracted to 3s pattern {311}
 Group   5 Type C   : 11s6p1d contracted to 5s3p1d pattern {62111/411/1}
 Group   6 Type F   : 11s6p1d contracted to 5s3p1d pattern {62111/411/1}

Atom   0S    basis set group =>   1
Atom   1O    basis set group =>   2
Atom   2O    basis set group =>   2
Atom   3N    basis set group =>   3
Atom   4H    basis set group =>   4
Atom   5H    basis set group =>   4
Atom   6C    basis set group =>   5
Atom   7C    basis set group =>   5
Atom   8C    basis set group =>   5
Atom   9C    basis set group =>   5
Atom  10C    basis set group =>   5
Atom  11C    basis set group =>   5
Atom  12H    basis set group =>   4
Atom  13H    basis set group =>   4
Atom  14N    basis set group =>   3
Atom  15C    basis set group =>   5
Atom  16C    basis set group =>   5
Atom  17C    basis set group =>   5
Atom  18N    basis set group =>   3
Atom  19C    basis set group =>   5
Atom  20F    basis set group =>   6
Atom  21F    basis set group =>   6
Atom  22F    basis set group =>   6
Atom  23H    basis set group =>   4
Atom  24C    basis set group =>   5
Atom  25C    basis set group =>   5
Atom  26C    basis set group =>   5
Atom  27C    basis set group =>   5
Atom  28C    basis set group =>   5
Atom  29C    basis set group =>   5
Atom  30H    basis set group =>   4
Atom  31H    basis set group =>   4
Atom  32C    basis set group =>   5
Atom  33H    basis set group =>   4
Atom  34H    basis set group =>   4
Atom  35H    basis set group =>   4
Atom  36H    basis set group =>   4
Atom  37H    basis set group =>   4
Atom  38H    basis set group =>   4
Atom  39H    basis set group =>   4
---------------------------------
AUXILIARY/J BASIS SET INFORMATION
---------------------------------
There are 6 groups of distinct atoms

 Group   1 Type S   : 14s5p5d2f1g contracted to 8s4p3d1f1g pattern {71111111/2111/311/2/1}
 Group   2 Type O   : 8s3p3d contracted to 6s3p3d pattern {311111/111/111}
 Group   3 Type N   : 8s3p3d contracted to 6s3p3d pattern {311111/111/111}
 Group   4 Type H   : 5s2p contracted to 3s1p pattern {311/2}
 Group   5 Type C   : 8s3p3d contracted to 6s3p3d pattern {311111/111/111}
 Group   6 Type F   : 8s3p4d contracted to 6s3p4d pattern {311111/111/1111}

Atom   0S    basis set group =>   1
Atom   1O    basis set group =>   2
Atom   2O    basis set group =>   2
Atom   3N    basis set group =>   3
Atom   4H    basis set group =>   4
Atom   5H    basis set group =>   4
Atom   6C    basis set group =>   5
Atom   7C    basis set group =>   5
Atom   8C    basis set group =>   5
Atom   9C    basis set group =>   5
Atom  10C    basis set group =>   5
Atom  11C    basis set group =>   5
Atom  12H    basis set group =>   4
Atom  13H    basis set group =>   4
Atom  14N    basis set group =>   3
Atom  15C    basis set group =>   5
Atom  16C    basis set group =>   5
Atom  17C    basis set group =>   5
Atom  18N    basis set group =>   3
Atom  19C    basis set group =>   5
Atom  20F    basis set group =>   6
Atom  21F    basis set group =>   6
Atom  22F    basis set group =>   6
Atom  23H    basis set group =>   4
Atom  24C    basis set group =>   5
Atom  25C    basis set group =>   5
Atom  26C    basis set group =>   5
Atom  27C    basis set group =>   5
Atom  28C    basis set group =>   5
Atom  29C    basis set group =>   5
Atom  30H    basis set group =>   4
Atom  31H    basis set group =>   4
Atom  32C    basis set group =>   5
Atom  33H    basis set group =>   4
Atom  34H    basis set group =>   4
Atom  35H    basis set group =>   4
Atom  36H    basis set group =>   4
Atom  37H    basis set group =>   4
Atom  38H    basis set group =>   4
Atom  39H    basis set group =>   4


           ************************************************************
           *        Program running with 16 parallel MPI-processes    *
           *              working on a common directory               *
           ************************************************************
------------------------------------------------------------------------------
                             ORCA STARTUP CALCULATIONS
                           -- RI-GTO INTEGRALS CHOSEN --
------------------------------------------------------------------------------
------------------------------------------------------------------------------
                   ___                                                        
                  /   \      - P O W E R E D   B Y -                         
                 /     \                                                     
                 |  |  |   _    _      __       _____    __    __             
                 |  |  |  | |  | |    /  \     |  _  \  |  |  /  |          
                  \  \/   | |  | |   /    \    | | | |  |  | /  /          
                 / \  \   | |__| |  /  /\  \   | |_| |  |  |/  /          
                |  |  |   |  __  | /  /__\  \  |    /   |      \           
                |  |  |   | |  | | |   __   |  |    \   |  |\   \          
                \     /   | |  | | |  |  |  |  | |\  \  |  | \   \       
                 \___/    |_|  |_| |__|  |__|  |_| \__\ |__|  \__/        
                                                                              
                      - O R C A' S   B I G   F R I E N D -                    
                                      &                                       
                       - I N T E G R A L  F E E D E R -                       
                                                                              
 v1 FN, 2020, v2 2021, v3 2022-2024                                           
------------------------------------------------------------------------------


----------------------
SHARK INTEGRAL PACKAGE
----------------------

Number of atoms                             ...     40
Number of basis functions                   ...    549
Number of shells                            ...    279
Maximum angular momentum                    ...      2
Integral batch strategy                     ... SHARK/LIBINT Hybrid
RI-J (if used) integral strategy            ... SPLIT-RIJ (Revised 2003 algorithm where possible)
Printlevel                                  ...      1
Contraction scheme used                     ... SEGMENTED contraction
Prescreening option                         ... SCHWARTZ
   Thresh                                   ... 2.500e-11
   Tcut                                     ... 2.500e-12
   Tpresel                                  ... 2.500e-12 
Coulomb Range Separation                    ... NOT USED
Exchange Range Separation                   ... NOT USED
Multipole approximations                    ... NOT USED
Finite Nucleus Model                        ... NOT USED
CABS basis                                  ... NOT available
Auxiliary Coulomb fitting basis             ... AVAILABLE
   # of basis functions in Aux-J            ...    900
   # of shells in Aux-J                     ...    376
   Maximum angular momentum in Aux-J        ...      4
Auxiliary J/K fitting basis                 ... NOT available
Auxiliary Correlation fitting basis         ... NOT available
Auxiliary 'external' fitting basis          ... NOT available

Checking pre-screening integrals            ... done (  0.0 sec) Dimension = 279
Check shell pair data                       ... done (  0.0 sec)
Shell pair information
Shell pair cut-off parameter TPreSel        ...   2.5e-12
Total number of shell pairs                 ...     39060
Shell pairs after pre-screening             ...     25184
Total number of primitive shell pairs       ...    149963
Primitive shell pairs kept                  ...     58850
          la=0 lb=0:   8860 shell pairs
          la=1 lb=0:   9421 shell pairs
          la=1 lb=1:   2468 shell pairs
          la=2 lb=0:   2717 shell pairs
          la=2 lb=1:   1496 shell pairs
          la=2 lb=2:    222 shell pairs

Calculating one electron integrals          ... done (  0.1 sec)
Calculating RI/J V-Matrix + Cholesky decomp.... done (  0.1 sec)
Calculating Nuclear repulsion               ... done (  0.0 sec) ENN=   2455.548424085848 Eh

Diagonalization of the overlap matrix:
Smallest eigenvalue                        ... 6.592e-06
Time for diagonalization                   ...    0.053 sec
Threshold for overlap eigenvalues          ... 1.000e-07
Number of eigenvalues below threshold      ... 0
Time for construction of square roots      ...    0.019 sec
Total time needed                          ...    0.075 sec

-------------------
DFT GRID GENERATION
-------------------

General Integration Accuracy     IntAcc      ... 4.959
Radial Grid Type                 RadialGrid  ... OptM3 with GC (2021)
Angular Grid (max. ang.)         AngularGrid ... 6 (Lebedev-590)
Angular grid pruning method      GridPruning ... 4 (adaptive)
Weight generation scheme         WeightScheme... mBecke (2022)
Basis function cutoff            BFCut       ... 1.0000e-11
Integration weight cutoff        WCut        ... 1.0000e-14
Partially contracted basis set               ... off
Rotationally invariant grid construction     ... off
Angular grids for H and He will be reduced by one unit
Diffuse basis detected: some atoms will have their outermost
                        angular grid increased by 1.

Total number of grid points                  ...   491816
Total number of batches                      ...     7704
Average number of points per batch           ...       63
Average number of grid points per atom       ...    12295
Initializing property integral containers    ... done (  0.0 sec)

SHARK setup successfully completed in   4.4 seconds

Maximum memory used throughout the entire STARTUP-calculation: 117.2 MB


           ************************************************************
           *        Program running with 16 parallel MPI-processes    *
           *              working on a common directory               *
           ************************************************************
-------------------------------------------------------------------------------
                                 ORCA GUESS
                   Start orbitals & Density for SCF / CASSCF
-------------------------------------------------------------------------------

------------
SCF SETTINGS
------------
Hamiltonian:
 Density Functional     Method          .... DFT(GTOs)
 Exchange Functional    Exchange        .... B973C
 Correlation Functional Correlation     .... B973C
 Gradients option       PostSCFGGA      .... off
 RI-approximation to the Coulomb term is turned on
   Number of AuxJ basis functions       .... 900


General Settings:
 Integral files         IntName         .... m1_00_Celecoxib-GitHubGFN2-B97-3C-TZ
 Hartree-Fock type      HFTyp           .... RHF
 Total Charge           Charge          ....    0
 Multiplicity           Mult            ....    1
 Number of Electrons    NEL             ....  196
 Basis Dimension        Dim             ....  549
 Nuclear Repulsion      ENuc            ....   2455.5484240858 Eh

Convergence Acceleration:
 AO-DIIS                CNVDIIS         .... on
   Start iteration      DIISMaxIt       ....    12
   Startup error        DIISStart       ....  0.200000
   # of expansion vecs  DIISMaxEq       ....     5
   Bias factor          DIISBfac        ....   1.050
   Max. coefficient     DIISMaxC        ....  10.000
 MO-DIIS                CNVKDIIS        .... off
 Trust-Rad. Augm. Hess. CNVTRAH         .... off
 SOSCF                  CNVSOSCF        .... on
   Start iteration      SOSCFMaxIt      ....   150
   Startup grad/error   SOSCFStart      ....  0.003300
   Hessian update       SOSCFHessUp     .... L-BFGS
 Level Shifting         CNVShift        .... on
   Level shift para.    LevelShift      ....    0.2500
   Turn off err/grad.   ShiftErr        ....    0.0010
 Zerner damping         CNVZerner       .... off
 Static damping         CNVDamp         .... on
   Fraction old density DampFac         ....    0.7000
   Max. Damping (<1)    DampMax         ....    0.9800
   Min. Damping (>=0)   DampMin         ....    0.0000
   Turn off err/grad.   DampErr         ....    0.1000

SCF Procedure:
 Maximum # iterations   MaxIter         ....   800
 SCF integral mode      SCFMode         .... Direct
   Integral package                     .... SHARK and LIBINT hybrid scheme
 Reset frequency        DirectResetFreq ....    20
 Integral Threshold     Thresh          ....  2.500e-11 Eh
 Primitive CutOff       TCut            ....  2.500e-12 Eh

Convergence Tolerance:
 Convergence Check Mode ConvCheckMode   .... Total+1el-Energy
 Convergence forced     ConvForced      .... 0
 Energy Change          TolE            ....  1.000e-08 Eh
 1-El. energy change                    ....  1.000e-05 Eh
 Orbital Gradient       TolG            ....  1.000e-05
 Orbital Rotation angle TolX            ....  1.000e-05
 DIIS Error             TolErr          ....  5.000e-07

--------------------------------
INITIAL GUESS: MINIMAL BASIS EHT
--------------------------------
The minimal basis has 148 functions
EHT matrix was diagonalized
Basis set overlap was calculated now projecting the orbitals
Using GuessMode=FMatrix for the initial guess
C*T matrix was formed
Effective Fockian was calculated
Effective Fockian was diagonalized
Initial density was built
                      ------------------
                      INITIAL GUESS DONE
                      ------------------
             **** ENERGY FILE WAS UPDATED (m1_00_Celecoxib-GitHubGFN2-B97-3C-TZ.en.tmp) ****
Finished Guess after   0.4 sec
Maximum memory used throughout the entire GUESS-calculation: 47.8 MB


           ************************************************************
           *        Program running with 16 parallel MPI-processes    *
           *              working on a common directory               *
           ************************************************************

-------------------------------------------------------------------------------------------
                                      ORCA LEAN-SCF
                              memory conserving SCF solver
-------------------------------------------------------------------------------------------

----------------------------------------D-I-I-S--------------------------------------------
Iteration    Energy (Eh)           Delta-E    RMSDP     MaxDP     DIISErr   Damp  Time(sec)
-------------------------------------------------------------------------------------------
               ***  Starting incremental Fock matrix formation  ***
    1    -1662.1095903251821255     0.00e+00  8.08e-03  7.45e-01  8.41e-01  0.700   1.0
Warning: op=0 Small HOMO/LUMO gap (   0.090) - skipping pre-diagonalization
         Will do a full diagonalization
    2    -1664.2418987334472149    -2.13e+00  5.51e-03  4.08e-01  5.95e-01  0.700   1.0
    3    -1665.2932656322877847    -1.05e+00  2.97e-03  1.60e-01  4.06e-01  0.700   0.9
    4    -1666.0225624941072056    -7.29e-01  2.13e-03  1.42e-01  2.73e-01  0.700   0.9
                               ***Turning on AO-DIIS***
    5    -1666.5406667867896431    -5.18e-01  1.81e-03  1.60e-01  1.82e-01  0.700   1.0
    6    -1666.9013207000784860    -3.61e-01  1.26e-03  1.07e-01  1.27e-01  0.700   0.9
    7    -1667.1546507365260368    -2.53e-01  8.11e-04  5.59e-02  8.97e-02  0.700   0.9
    8    -1667.3323374803462684    -1.78e-01  1.86e-03  1.25e-01  6.37e-02  0.000   0.9
    9    -1667.7466232725578266    -4.14e-01  3.05e-04  2.23e-02  9.69e-03  0.000   1.0
   10    -1667.7469470625196664    -3.24e-04  7.97e-05  5.34e-03  5.77e-03  0.000   0.9
                              *** Initializing SOSCF ***
---------------------------------------S-O-S-C-F--------------------------------------
Iteration    Energy (Eh)           Delta-E    RMSDP     MaxDP     MaxGrad    Time(sec)
--------------------------------------------------------------------------------------
   11    -1667.7471023103621519    -1.55e-04  4.37e-05  3.51e-03  1.36e-03     1.0
               *** Restarting incremental Fock matrix formation ***
   12    -1667.7471128913325629    -1.06e-05  5.50e-05  3.88e-03  1.09e-04     1.0
   13    -1667.7471084097828680     4.48e-06  2.50e-05  1.74e-03  3.37e-04     0.9
   14    -1667.7471139426047557    -5.53e-06  2.71e-05  2.33e-03  5.98e-05     0.9
   15    -1667.7471131331490142     8.09e-07  8.34e-06  5.90e-04  1.42e-04     0.9
   16    -1667.7471141184328189    -9.85e-07  1.12e-05  7.87e-04  6.42e-06     0.9
   17    -1667.7471140978836956     2.05e-08  5.46e-06  4.93e-04  1.39e-05     0.9
   18    -1667.7471141234732386    -2.56e-08  8.89e-06  6.41e-04  1.36e-06     0.8
                  *** Gradient check signals convergence ***

               *****************************************************
               *                     SUCCESS                       *
               *           SCF CONVERGED AFTER  18 CYCLES          *
               *****************************************************

             **** ENERGY FILE WAS UPDATED (m1_00_Celecoxib-GitHubGFN2-B97-3C-TZ.en.tmp) ****

----------------
TOTAL SCF ENERGY
----------------

Total Energy       :      -1667.74711412347324 Eh          -45381.70614 eV

Components:
Nuclear Repulsion  :       2455.54842408584818 Eh           66818.86963 eV
Electronic Energy  :      -4123.29553820932142 Eh         -112200.57576 eV
One Electron Energy:      -7169.74590759045896 Eh         -195098.70477 eV
Two Electron Energy:       3046.45036938113753 Eh           82898.12901 eV

Virial components:
Potential Energy   :      -3330.71052007612525 Eh          -90633.24096 eV
Kinetic Energy     :       1662.96340595265224 Eh           45251.53482 eV
Virial Ratio       :          2.00287661661928

DFT components:
N(Alpha)           :       97.999994232977 electrons
N(Beta)            :       97.999994232977 electrons
N(Total)           :      195.999988465954 electrons
E(XC)              :     -191.768994329349 Eh       

---------------
SCF CONVERGENCE
---------------

  Last Energy change         ...    2.5590e-08  Tolerance :   1.0000e-08
  Last MAX-Density change    ...    6.4097e-04  Tolerance :   1.0000e-07
  Last RMS-Density change    ...    8.8902e-06  Tolerance :   5.0000e-09
  Last DIIS Error            ...    1.3630e-03  Tolerance :   5.0000e-07
  Last Orbital Gradient      ...    1.3606e-06  Tolerance :   1.0000e-05
  Last Orbital Rotation      ...    7.2733e-06  Tolerance :   1.0000e-05


----------------
ORBITAL ENERGIES
----------------

  NO   OCC          E(Eh)            E(eV) 
   0   2.0000     -88.248086     -2401.3525 
   1   2.0000     -24.272104      -660.4775 
   2   2.0000     -24.266930      -660.3367 
   3   2.0000     -24.265950      -660.3101 
   4   2.0000     -18.745755      -510.0979 
   5   2.0000     -18.745471      -510.0902 
   6   2.0000     -14.099138      -383.6570 
   7   2.0000     -14.026316      -381.6755 
   8   2.0000     -14.022308      -381.5664 
   9   2.0000     -10.138890      -275.8932 
  10   2.0000      -9.967641      -271.2333 
  11   2.0000      -9.955799      -270.9111 
  12   2.0000      -9.943589      -270.5788 
  13   2.0000      -9.941035      -270.5093 
  14   2.0000      -9.926601      -270.1166 
  15   2.0000      -9.926140      -270.1040 
  16   2.0000      -9.925860      -270.0964 
  17   2.0000      -9.925044      -270.0742 
  18   2.0000      -9.923167      -270.0231 
  19   2.0000      -9.917775      -269.8764 
  20   2.0000      -9.912554      -269.7343 
  21   2.0000      -9.912397      -269.7300 
  22   2.0000      -9.912200      -269.7247 
  23   2.0000      -9.907441      -269.5952 
  24   2.0000      -9.906835      -269.5787 
  25   2.0000      -9.900292      -269.4006 
  26   2.0000      -7.914305      -215.3592 
  27   2.0000      -5.943438      -161.7292 
  28   2.0000      -5.941863      -161.6863 
  29   2.0000      -5.941765      -161.6836 
  30   2.0000      -1.218294       -33.1515 
  31   2.0000      -1.129950       -30.7475 
  32   2.0000      -1.125859       -30.6362 
  33   2.0000      -1.055152       -28.7122 
  34   2.0000      -1.016101       -27.6495 
  35   2.0000      -0.945182       -25.7197 
  36   2.0000      -0.847792       -23.0696 
  37   2.0000      -0.841659       -22.9027 
  38   2.0000      -0.816555       -22.2196 
  39   2.0000      -0.799537       -21.7565 
  40   2.0000      -0.766347       -20.8534 
  41   2.0000      -0.724318       -19.7097 
  42   2.0000      -0.719376       -19.5752 
  43   2.0000      -0.714642       -19.4464 
  44   2.0000      -0.701935       -19.1006 
  45   2.0000      -0.672142       -18.2899 
  46   2.0000      -0.647135       -17.6094 
  47   2.0000      -0.626636       -17.0516 
  48   2.0000      -0.602730       -16.4011 
  49   2.0000      -0.584448       -15.9036 
  50   2.0000      -0.578508       -15.7420 
  51   2.0000      -0.570505       -15.5242 
  52   2.0000      -0.556178       -15.1344 
  53   2.0000      -0.546033       -14.8583 
  54   2.0000      -0.533423       -14.5152 
  55   2.0000      -0.532855       -14.4997 
  56   2.0000      -0.512898       -13.9567 
  57   2.0000      -0.508625       -13.8404 
  58   2.0000      -0.495455       -13.4820 
  59   2.0000      -0.491694       -13.3797 
  60   2.0000      -0.460635       -12.5345 
  61   2.0000      -0.459730       -12.5099 
  62   2.0000      -0.451054       -12.2738 
  63   2.0000      -0.440055       -11.9745 
  64   2.0000      -0.430542       -11.7156 
  65   2.0000      -0.428819       -11.6688 
  66   2.0000      -0.421714       -11.4754 
  67   2.0000      -0.417335       -11.3563 
  68   2.0000      -0.410263       -11.1638 
  69   2.0000      -0.406474       -11.0607 
  70   2.0000      -0.404531       -11.0079 
  71   2.0000      -0.403602       -10.9826 
  72   2.0000      -0.396124       -10.7791 
  73   2.0000      -0.394466       -10.7340 
  74   2.0000      -0.388561       -10.5733 
  75   2.0000      -0.384511       -10.4631 
  76   2.0000      -0.370796       -10.0899 
  77   2.0000      -0.365619        -9.9490 
  78   2.0000      -0.364498        -9.9185 
  79   2.0000      -0.359064        -9.7706 
  80   2.0000      -0.348698        -9.4886 
  81   2.0000      -0.345973        -9.4144 
  82   2.0000      -0.344411        -9.3719 
  83   2.0000      -0.335120        -9.1191 
  84   2.0000      -0.326203        -8.8764 
  85   2.0000      -0.324124        -8.8199 
  86   2.0000      -0.319168        -8.6850 
  87   2.0000      -0.292417        -7.9571 
  88   2.0000      -0.290469        -7.9041 
  89   2.0000      -0.287720        -7.8292 
  90   2.0000      -0.276088        -7.5127 
  91   2.0000      -0.275232        -7.4894 
  92   2.0000      -0.262298        -7.1375 
  93   2.0000      -0.260569        -7.0905 
  94   2.0000      -0.258847        -7.0436 
  95   2.0000      -0.245101        -6.6695 
  96   2.0000      -0.231240        -6.2924 
  97   2.0000      -0.216944        -5.9033 
  98   0.0000      -0.089929        -2.4471 
  99   0.0000      -0.067948        -1.8490 
 100   0.0000      -0.060694        -1.6516 
 101   0.0000      -0.048871        -1.3299 
 102   0.0000      -0.030320        -0.8250 
 103   0.0000       0.002039         0.0555 
 104   0.0000       0.005554         0.1511 
 105   0.0000       0.024305         0.6614 
 106   0.0000       0.034938         0.9507 
 107   0.0000       0.036867         1.0032 
 108   0.0000       0.040449         1.1007 
*Only the first 10 virtual orbitals were printed.

                    ********************************
                    * MULLIKEN POPULATION ANALYSIS *
                    ********************************

-----------------------
MULLIKEN ATOMIC CHARGES
-----------------------
   0 S :    0.975810
   1 O :   -0.495567
   2 O :   -0.499621
   3 N :   -0.724823
   4 H :    0.353462
   5 H :    0.353365
   6 C :   -0.156613
   7 C :   -0.139495
   8 C :   -0.170730
   9 C :   -0.040929
  10 C :    0.010492
  11 C :   -0.208935
  12 H :    0.202705
  13 H :    0.218590
  14 N :    0.137981
  15 C :    0.029615
  16 C :   -0.154199
  17 C :   -0.054309
  18 N :   -0.120215
  19 C :    0.524509
  20 F :   -0.222062
  21 F :   -0.213192
  22 F :   -0.212852
  23 H :    0.227856
  24 C :   -0.274488
  25 C :   -0.026444
  26 C :   -0.156670
  27 C :    0.032784
  28 C :   -0.116905
  29 C :   -0.175889
  30 H :    0.200903
  31 H :    0.186782
  32 C :   -0.656512
  33 H :    0.182095
  34 H :    0.182353
  35 H :    0.189638
  36 H :    0.184254
  37 H :    0.207466
  38 H :    0.213825
  39 H :    0.205963
Sum of atomic charges:    0.0000000

--------------------------------
MULLIKEN REDUCED ORBITAL CHARGES
--------------------------------
  0 S s       :     5.189690  s :     5.189690
      pz      :     2.992379  p :     9.075741
      px      :     3.097262
      py      :     2.986099
      dz2     :     0.154015  d :     0.758759
      dxz     :     0.107458
      dyz     :     0.208880
      dx2y2   :     0.171543
      dxy     :     0.116863

  1 O s       :     3.854110  s :     3.854110
      pz      :     1.356018  p :     4.596671
      px      :     1.654837
      py      :     1.585816
      dz2     :     0.014761  d :     0.044786
      dxz     :     0.005059
      dyz     :     0.012412
      dx2y2   :     0.005938
      dxy     :     0.006616

  2 O s       :     3.854271  s :     3.854271
      pz      :     1.638978  p :     4.599834
      px      :     1.609618
      py      :     1.351238
      dz2     :     0.006876  d :     0.045517
      dxz     :     0.006742
      dyz     :     0.010796
      dx2y2   :     0.013170
      dxy     :     0.007933

  3 N s       :     3.535234  s :     3.535234
      pz      :     1.245807  p :     4.159593
      px      :     1.708096
      py      :     1.205690
      dz2     :     0.003452  d :     0.029996
      dxz     :     0.007330
      dyz     :     0.009011
      dx2y2   :     0.003648
      dxy     :     0.006554

  4 H s       :     0.646538  s :     0.646538

  5 H s       :     0.646635  s :     0.646635

  6 C s       :     3.225538  s :     3.225538
      pz      :     0.995057  p :     2.886894
      px      :     0.923670
      py      :     0.968167
      dz2     :     0.007790  d :     0.044181
      dxz     :     0.006974
      dyz     :     0.007336
      dx2y2   :     0.012702
      dxy     :     0.009379

  7 C s       :     3.118014  s :     3.118014
      pz      :     0.943730  p :     2.979566
      px      :     1.006681
      py      :     1.029155
      dz2     :     0.004569  d :     0.041915
      dxz     :     0.009761
      dyz     :     0.006120
      dx2y2   :     0.009425
      dxy     :     0.012040

  8 C s       :     3.123086  s :     3.123086
      pz      :     1.009804  p :     3.007010
      px      :     1.032593
      py      :     0.964612
      dz2     :     0.004370  d :     0.040634
      dxz     :     0.009411
      dyz     :     0.005943
      dx2y2   :     0.009159
      dxy     :     0.011752

  9 C s       :     3.258784  s :     3.258784
      pz      :     0.852424  p :     2.721416
      px      :     0.879074
      py      :     0.989918
      dz2     :     0.009035  d :     0.060729
      dxz     :     0.014867
      dyz     :     0.007296
      dx2y2   :     0.017678
      dxy     :     0.011853

 10 C s       :     2.968436  s :     2.968436
      pz      :     0.960331  p :     2.980074
      px      :     0.990940
      py      :     1.028802
      dz2     :     0.004534  d :     0.040997
      dxz     :     0.009835
      dyz     :     0.006274
      dx2y2   :     0.008812
      dxy     :     0.011542

 11 C s       :     3.169526  s :     3.169526
      pz      :     1.004577  p :     2.997517
      px      :     1.044221
      py      :     0.948719
      dz2     :     0.004680  d :     0.041892
      dxz     :     0.009690
      dyz     :     0.006041
      dx2y2   :     0.009453
      dxy     :     0.012028

 12 H s       :     0.797295  s :     0.797295

 13 H s       :     0.781410  s :     0.781410

 14 N s       :     3.194341  s :     3.194341
      pz      :     1.517659  p :     3.591953
      px      :     1.011945
      py      :     1.062349
      dz2     :     0.004401  d :     0.075725
      dxz     :     0.009220
      dyz     :     0.013553
      dx2y2   :     0.024759
      dxy     :     0.023792

 15 C s       :     3.206357  s :     3.206357
      pz      :     1.021376  p :     2.701526
      px      :     0.847155
      py      :     0.832995
      dz2     :     0.004399  d :     0.062501
      dxz     :     0.009391
      dyz     :     0.009423
      dx2y2   :     0.016299
      dxy     :     0.022988

 16 C s       :     3.059221  s :     3.059221
      pz      :     1.072484  p :     3.054503
      px      :     0.986768
      py      :     0.995252
      dz2     :     0.004198  d :     0.040475
      dxz     :     0.004461
      dyz     :     0.005125
      dx2y2   :     0.013829
      dxy     :     0.012862

 17 C s       :     3.193740  s :     3.193740
      pz      :     1.053240  p :     2.800030
      px      :     0.841052
      py      :     0.905738
      dz2     :     0.004609  d :     0.060539
      dxz     :     0.008076
      dyz     :     0.007840
      dx2y2   :     0.018343
      dxy     :     0.021671

 18 N s       :     3.653765  s :     3.653765
      pz      :     1.196077  p :     3.406958
      px      :     1.031103
      py      :     1.179778
      dz2     :     0.006267  d :     0.059492
      dxz     :     0.010607
      dyz     :     0.008734
      dx2y2   :     0.014266
      dxy     :     0.019617

 19 C s       :     2.975771  s :     2.975771
      pz      :     0.691112  p :     2.343458
      px      :     0.850145
      py      :     0.802201
      dz2     :     0.034706  d :     0.156261
      dxz     :     0.026106
      dyz     :     0.036396
      dx2y2   :     0.024140
      dxy     :     0.034914

 20 F s       :     3.924090  s :     3.924090
      pz      :     1.911397  p :     5.280248
      px      :     1.544335
      py      :     1.824516
      dz2     :     0.002637  d :     0.017725
      dxz     :     0.002742
      dyz     :     0.001047
      dx2y2   :     0.004899
      dxy     :     0.006400

 21 F s       :     3.924924  s :     3.924924
      pz      :     1.612903  p :     5.270575
      px      :     1.912439
      py      :     1.745233
      dz2     :     0.004952  d :     0.017692
      dxz     :     0.002269
      dyz     :     0.007220
      dx2y2   :     0.001694
      dxy     :     0.001557

 22 F s       :     3.924972  s :     3.924972
      pz      :     1.631267  p :     5.270064
      px      :     1.913239
      py      :     1.725559
      dz2     :     0.004519  d :     0.017815
      dxz     :     0.002150
      dyz     :     0.007446
      dx2y2   :     0.001984
      dxy     :     0.001717

 23 H s       :     0.772144  s :     0.772144

 24 C s       :     3.440170  s :     3.440170
      pz      :     0.880751  p :     2.784237
      px      :     0.897246
      py      :     1.006240
      dz2     :     0.008991  d :     0.050081
      dxz     :     0.007395
      dyz     :     0.011491
      dx2y2   :     0.011445
      dxy     :     0.010759

 25 C s       :     2.965428  s :     2.965428
      pz      :     0.987460  p :     3.019085
      px      :     0.968394
      py      :     1.063231
      dz2     :     0.005415  d :     0.041931
      dxz     :     0.006300
      dyz     :     0.011311
      dx2y2   :     0.009214
      dxy     :     0.009691

 26 C s       :     3.065101  s :     3.065101
      pz      :     0.995459  p :     3.049936
      px      :     1.032633
      py      :     1.021845
      dz2     :     0.005140  d :     0.041633
      dxz     :     0.007376
      dyz     :     0.009808
      dx2y2   :     0.009818
      dxy     :     0.009491

 27 C s       :     3.314599  s :     3.314599
      pz      :     0.906650  p :     2.603546
      px      :     0.910536
      py      :     0.786360
      dz2     :     0.008186  d :     0.049070
      dxz     :     0.006963
      dyz     :     0.011588
      dx2y2   :     0.011280
      dxy     :     0.011053

 28 C s       :     2.982820  s :     2.982820
      pz      :     1.007450  p :     3.092383
      px      :     0.962398
      py      :     1.122535
      dz2     :     0.005271  d :     0.041702
      dxz     :     0.006213
      dyz     :     0.010926
      dx2y2   :     0.009202
      dxy     :     0.010090

 29 C s       :     3.064998  s :     3.064998
      pz      :     0.966608  p :     3.069182
      px      :     1.040103
      py      :     1.062471
      dz2     :     0.005006  d :     0.041708
      dxz     :     0.007156
      dyz     :     0.010169
      dx2y2   :     0.009519
      dxy     :     0.009859

 30 H s       :     0.799097  s :     0.799097

 31 H s       :     0.813218  s :     0.813218

 32 C s       :     3.365936  s :     3.365936
      pz      :     1.145906  p :     3.252756
      px      :     1.117009
      py      :     0.989841
      dz2     :     0.007487  d :     0.037819
      dxz     :     0.003568
      dyz     :     0.010211
      dx2y2   :     0.011103
      dxy     :     0.005450

 33 H s       :     0.817905  s :     0.817905

 34 H s       :     0.817647  s :     0.817647

 35 H s       :     0.810362  s :     0.810362

 36 H s       :     0.815746  s :     0.815746

 37 H s       :     0.792534  s :     0.792534

 38 H s       :     0.786175  s :     0.786175

 39 H s       :     0.794037  s :     0.794037



                     *******************************
                     * LOEWDIN POPULATION ANALYSIS *
                     *******************************

----------------------
LOEWDIN ATOMIC CHARGES
----------------------
   0 S :    1.692833
   1 O :   -0.811585
   2 O :   -0.815920
   3 N :   -0.599983
   4 H :    0.284206
   5 H :    0.284242
   6 C :   -0.180161
   7 C :   -0.131149
   8 C :   -0.134988
   9 C :    0.017799
  10 C :   -0.137487
  11 C :   -0.132747
  12 H :    0.192152
  13 H :    0.191360
  14 N :    0.020260
  15 C :    0.015023
  16 C :   -0.179501
  17 C :   -0.063524
  18 N :   -0.096078
  19 C :    0.299576
  20 F :   -0.113830
  21 F :   -0.113488
  22 F :   -0.110699
  23 H :    0.188608
  24 C :   -0.080708
  25 C :   -0.136223
  26 C :   -0.150375
  27 C :   -0.071239
  28 C :   -0.155307
  29 C :   -0.139479
  30 H :    0.174541
  31 H :    0.168470
  32 C :   -0.406619
  33 H :    0.162448
  34 H :    0.167528
  35 H :    0.171230
  36 H :    0.171099
  37 H :    0.178769
  38 H :    0.190116
  39 H :    0.190828

-------------------------------
LOEWDIN REDUCED ORBITAL CHARGES
-------------------------------
  0 S s       :     4.726670  s :     4.726670
      pz      :     2.874767  p :     8.679717
      px      :     2.928278
      py      :     2.876672
      dz2     :     0.184549  d :     0.900780
      dxz     :     0.120297
      dyz     :     0.253516
      dx2y2   :     0.206043
      dxy     :     0.136375

  1 O s       :     3.685086  s :     3.685086
      pz      :     1.520918  p :     4.827463
      px      :     1.669712
      py      :     1.636832
      dz2     :     0.084446  d :     0.299036
      dxz     :     0.064299
      dyz     :     0.076274
      dx2y2   :     0.037799
      dxy     :     0.036218

  2 O s       :     3.684667  s :     3.684667
      pz      :     1.661811  p :     4.829920
      px      :     1.647987
      py      :     1.520122
      dz2     :     0.040965  d :     0.301333
      dxz     :     0.032453
      dyz     :     0.069021
      dx2y2   :     0.081700
      dxy     :     0.077195

  3 N s       :     3.334662  s :     3.334662
      pz      :     1.286999  p :     4.216322
      px      :     1.678081
      py      :     1.251242
      dz2     :     0.007485  d :     0.048998
      dxz     :     0.009150
      dyz     :     0.017886
      dx2y2   :     0.006287
[...]
 63:    953.23   0.000188    0.95  0.000062  ( 0.001683 -0.005827  0.004974)
 64:    975.75   0.013896   70.22  0.004444  ( 0.035646 -0.056209  0.003747)
 65:    985.98   0.009110   46.04  0.002883  (-0.037036 -0.038855 -0.001409)
 66:   1005.78   0.000197    1.00  0.000061  (-0.000577 -0.007769 -0.000652)
 67:   1031.03   0.001688    8.53  0.000511  ( 0.018027 -0.006883  0.011776)
 68:   1038.22   0.000273    1.38  0.000082  (-0.007590  0.002742  0.004129)
 69:   1052.49   0.002856   14.43  0.000847  (-0.004912 -0.027006  0.009655)
 70:   1065.92   0.013751   69.49  0.004026  (-0.034644  0.034347 -0.040571)
 71:   1080.14   0.001176    5.94  0.000340  ( 0.012352 -0.007268  0.011596)
 72:   1098.12   0.036367  183.78  0.010335  ( 0.037982 -0.051690  0.078868)
 73:   1099.41   0.001954    9.87  0.000555  (-0.004932  0.014498  0.017891)
 74:   1107.21   0.030187  152.55  0.008508  ( 0.048257  0.018706 -0.076352)
 75:   1117.01   0.043211  218.37  0.012072  ( 0.107460 -0.004423  0.022463)
 76:   1129.34   0.037880  191.43  0.010467  (-0.033859 -0.080983 -0.052558)
 77:   1135.46   0.010772   54.44  0.002961  (-0.047964 -0.023809 -0.009650)
 78:   1141.59   0.001417    7.16  0.000387  (-0.010832  0.005482  0.015492)
 79:   1199.99   0.002034   10.28  0.000529  (-0.021959  0.006665  0.001521)
 80:   1207.06   0.001313    6.63  0.000339  (-0.004192 -0.017158  0.005242)
 81:   1214.22   0.000169    0.85  0.000043  ( 0.002087 -0.005071  0.003648)
 82:   1233.62   0.029097  147.05  0.007361  ( 0.073281 -0.044490 -0.003330)
 83:   1235.01   0.045229  228.57  0.011428  ( 0.086737 -0.062414 -0.003098)
 84:   1289.71   0.009084   45.91  0.002198  ( 0.037285 -0.027594 -0.006816)
 85:   1306.69   0.028117  142.09  0.006715  (-0.003407  0.058157  0.057629)
 86:   1328.15   0.001175    5.94  0.000276  ( 0.008188 -0.013153 -0.006002)
 87:   1329.55   0.001477    7.47  0.000347  ( 0.018212 -0.003865  0.000343)
 88:   1342.06   0.000221    1.12  0.000051  ( 0.000961 -0.006572  0.002707)
 89:   1360.55   0.001794    9.07  0.000411  (-0.013126 -0.015386 -0.001560)
 90:   1389.92   0.018203   91.99  0.004087  ( 0.063745  0.004826  0.000297)
 91:   1415.57   0.000358    1.81  0.000079  ( 0.004887 -0.007402  0.000406)
 92:   1433.72   0.005450   27.54  0.001186  (-0.007562  0.030147  0.014841)
 93:   1437.64   0.002416   12.21  0.000525  ( 0.017537 -0.014594 -0.001998)
 94:   1458.29   0.004253   21.49  0.000910  (-0.012339  0.027299 -0.003557)
 95:   1471.81   0.014674   74.15  0.003111  (-0.045802  0.031823 -0.000829)
 96:   1494.23   0.002465   12.46  0.000515  ( 0.021750  0.004958 -0.004134)
 97:   1498.64   0.002536   12.82  0.000528  (-0.013861 -0.000463 -0.018324)
 98:   1525.37   0.009519   48.10  0.001947  (-0.037296 -0.022936  0.005504)
 99:   1535.27   0.002077   10.49  0.000422  ( 0.016511 -0.011414  0.004384)
100:   1577.37   0.000381    1.93  0.000075  (-0.000659 -0.007071 -0.005000)
101:   1595.86   0.000152    0.77  0.000030  ( 0.004640 -0.000383 -0.002848)
102:   1609.20   0.004618   23.34  0.000896  ( 0.021301  0.015576 -0.014117)
103:   1615.44   0.000598    3.02  0.000116  (-0.002287  0.004798  0.009345)
104:   1627.90   0.009321   47.10  0.001787  ( 0.040166  0.013171 -0.000128)
105:   1647.34   0.001798    9.09  0.000341  (-0.006976  0.017063 -0.000930)
106:   2997.28   0.007042   35.59  0.000733  ( 0.003819 -0.026275  0.005314)
107:   3055.60   0.003619   18.29  0.000370  (-0.014966  0.004881  0.011035)
108:   3086.28   0.003530   17.84  0.000357  (-0.009684 -0.008594 -0.013757)
109:   3124.29   0.002441   12.33  0.000244  ( 0.006994  0.008895  0.010759)
110:   3126.74   0.004195   21.20  0.000419  ( 0.006367 -0.018981  0.004223)
111:   3143.18   0.003800   19.21  0.000377  (-0.012369 -0.005628 -0.013879)
112:   3150.91   0.001186    5.99  0.000117  ( 0.005179  0.006140  0.007272)
113:   3167.72   0.000012    0.06  0.000001  ( 0.000820 -0.000358 -0.000644)
114:   3168.70   0.000037    0.19  0.000004  (-0.000143  0.001864 -0.000367)
115:   3179.92   0.000275    1.39  0.000027  ( 0.000574 -0.003359 -0.003916)
116:   3182.02   0.000894    4.52  0.000088  (-0.008076 -0.004026 -0.002492)
117:   3233.81   0.000101    0.51  0.000010  (-0.001446  0.002773  0.000018)
118:   3453.97   0.006412   32.40  0.000579  (-0.018179 -0.011933  0.010317)
119:   3569.10   0.005018   25.36  0.000439  (-0.002538  0.015630  0.013712)

* The epsilon (eps) is given for a Dirac delta lineshape.
** The dipole moment derivative (T) already includes vibrational overlap.

The first frequency considered to be a vibration is 6
The total number of vibrations considered is 114


--------------------------
THERMOCHEMISTRY AT 298.15K
--------------------------

Temperature         ...   298.15 K
Pressure            ...     1.00 atm
Total Mass          ...   381.37 AMU
Quasi RRHO          ...     True
Cut-Off Frequency   ...     1.00 cm^-1

Throughout the following assumptions are being made:
  (1) The electronic state is orbitally nondegenerate
  (2) There are no thermally accessible electronically excited states
  (3) Hindered rotations indicated by low frequency modes are not
      treated as such but are treated as vibrations and this may
      cause some error
  (4) All equations used are the standard statistical mechanics
      equations for an ideal gas
  (5) All vibrations are strictly harmonic

freq.       5.74  E(vib)   ...       0.58 
freq.      14.44  E(vib)   ...       0.57 
freq.      24.18  E(vib)   ...       0.56 
freq.      30.96  E(vib)   ...       0.55 
freq.      37.00  E(vib)   ...       0.54 
freq.      43.94  E(vib)   ...       0.53 
freq.      55.79  E(vib)   ...       0.52 
freq.      62.23  E(vib)   ...       0.51 
freq.      95.54  E(vib)   ...       0.47 
freq.     107.39  E(vib)   ...       0.45 
freq.     130.13  E(vib)   ...       0.43 
freq.     134.51  E(vib)   ...       0.42 
freq.     146.28  E(vib)   ...       0.41 
freq.     177.75  E(vib)   ...       0.37 
freq.     191.90  E(vib)   ...       0.36 
freq.     204.81  E(vib)   ...       0.35 
freq.     236.00  E(vib)   ...       0.32 
freq.     259.30  E(vib)   ...       0.30 
freq.     291.40  E(vib)   ...       0.27 
freq.     331.11  E(vib)   ...       0.24 
freq.     346.64  E(vib)   ...       0.23 
freq.     348.16  E(vib)   ...       0.23 
freq.     362.77  E(vib)   ...       0.22 
freq.     376.23  E(vib)   ...       0.21 
freq.     402.06  E(vib)   ...       0.19 
freq.     405.94  E(vib)   ...       0.19 
freq.     411.41  E(vib)   ...       0.19 
freq.     423.08  E(vib)   ...       0.18 
freq.     430.35  E(vib)   ...       0.18 
freq.     464.07  E(vib)   ...       0.16 
freq.     475.76  E(vib)   ...       0.15 
freq.     504.81  E(vib)   ...       0.14 
freq.     530.66  E(vib)   ...       0.13 
freq.     544.35  E(vib)   ...       0.12 
freq.     554.08  E(vib)   ...       0.12 
freq.     572.27  E(vib)   ...       0.11 
freq.     610.26  E(vib)   ...       0.10 
freq.     626.28  E(vib)   ...       0.09 
freq.     641.33  E(vib)   ...       0.09 
freq.     655.24  E(vib)   ...       0.08 
freq.     661.39  E(vib)   ...       0.08 
freq.     693.50  E(vib)   ...       0.07 
freq.     708.29  E(vib)   ...       0.07 
freq.     715.84  E(vib)   ...       0.07 
freq.     723.37  E(vib)   ...       0.07 
freq.     729.11  E(vib)   ...       0.06 
freq.     760.16  E(vib)   ...       0.06 
freq.     805.27  E(vib)   ...       0.05 
freq.     814.76  E(vib)   ...       0.05 
freq.     824.54  E(vib)   ...       0.04 
freq.     825.22  E(vib)   ...       0.04 
freq.     830.71  E(vib)   ...       0.04 
freq.     837.74  E(vib)   ...       0.04 
freq.     862.15  E(vib)   ...       0.04 
freq.     909.55  E(vib)   ...       0.03 
freq.     938.45  E(vib)   ...       0.03 
freq.     944.36  E(vib)   ...       0.03 
freq.     953.23  E(vib)   ...       0.03 
freq.     975.75  E(vib)   ...       0.03 
freq.     985.98  E(vib)   ...       0.02 
freq.    1005.78  E(vib)   ...       0.02 
freq.    1031.03  E(vib)   ...       0.02 
freq.    1038.22  E(vib)   ...       0.02 
freq.    1052.49  E(vib)   ...       0.02 
freq.    1065.92  E(vib)   ...       0.02 
freq.    1080.14  E(vib)   ...       0.02 
freq.    1098.12  E(vib)   ...       0.02 
freq.    1099.41  E(vib)   ...       0.02 
freq.    1107.21  E(vib)   ...       0.02 
freq.    1117.01  E(vib)   ...       0.01 
freq.    1129.34  E(vib)   ...       0.01 
freq.    1135.46  E(vib)   ...       0.01 
freq.    1141.59  E(vib)   ...       0.01 
freq.    1199.99  E(vib)   ...       0.01 
freq.    1207.06  E(vib)   ...       0.01 
freq.    1214.22  E(vib)   ...       0.01 
freq.    1233.62  E(vib)   ...       0.01 
freq.    1235.01  E(vib)   ...       0.01 
freq.    1289.71  E(vib)   ...       0.01 
freq.    1306.69  E(vib)   ...       0.01 
freq.    1328.15  E(vib)   ...       0.01 
freq.    1329.55  E(vib)   ...       0.01 
freq.    1342.06  E(vib)   ...       0.01 
freq.    1360.55  E(vib)   ...       0.01 
freq.    1389.92  E(vib)   ...       0.00 
freq.    1415.57  E(vib)   ...       0.00 
freq.    1433.72  E(vib)   ...       0.00 
freq.    1437.64  E(vib)   ...       0.00 
freq.    1458.29  E(vib)   ...       0.00 
freq.    1471.81  E(vib)   ...       0.00 
freq.    1494.23  E(vib)   ...       0.00 
freq.    1498.64  E(vib)   ...       0.00 
freq.    1525.37  E(vib)   ...       0.00 
freq.    1535.27  E(vib)   ...       0.00 
freq.    1577.37  E(vib)   ...       0.00 
freq.    1595.86  E(vib)   ...       0.00 
freq.    1609.20  E(vib)   ...       0.00 
freq.    1615.44  E(vib)   ...       0.00 
freq.    1627.90  E(vib)   ...       0.00 
freq.    1647.34  E(vib)   ...       0.00 
freq.    2997.28  E(vib)   ...       0.00 
freq.    3055.60  E(vib)   ...       0.00 
freq.    3086.28  E(vib)   ...       0.00 
freq.    3124.29  E(vib)   ...       0.00 
freq.    3126.74  E(vib)   ...       0.00 
freq.    3143.18  E(vib)   ...       0.00 
freq.    3150.91  E(vib)   ...       0.00 
freq.    3167.72  E(vib)   ...       0.00 
freq.    3168.70  E(vib)   ...       0.00 
freq.    3179.92  E(vib)   ...       0.00 
freq.    3182.02  E(vib)   ...       0.00 
freq.    3233.81  E(vib)   ...       0.00 
freq.    3453.97  E(vib)   ...       0.00 
freq.    3569.10  E(vib)   ...       0.00 

------------
INNER ENERGY
------------

The inner energy is: U= E(el) + E(ZPE) + E(vib) + E(rot) + E(trans)
    E(el)   - is the total energy from the electronic structure calculation
              = E(kin-el) + E(nuc-el) + E(el-el) + E(nuc-nuc)
    E(ZPE)  - the the zero temperature vibrational energy from the frequency calculation
    E(vib)  - the the finite temperature correction to E(ZPE) due to population
              of excited vibrational states
    E(rot)  - is the rotational thermal energy
    E(trans)- is the translational thermal energy

Summary of contributions to the inner energy U:
Electronic energy                ...  -1668.02174020 Eh
Zero point energy                ...      0.28679165 Eh     179.96 kcal/mol
Thermal vibrational correction   ...      0.02094535 Eh      13.14 kcal/mol
Thermal rotational correction    ...      0.00141627 Eh       0.89 kcal/mol
Thermal translational correction ...      0.00141627 Eh       0.89 kcal/mol
-----------------------------------------------------------------------
Total thermal energy                  -1667.71117065 Eh


Summary of corrections to the electronic energy:
(perhaps to be used in another calculation)
Total thermal correction                  0.02377790 Eh      14.92 kcal/mol
Non-thermal (ZPE) correction              0.28679165 Eh     179.96 kcal/mol
-----------------------------------------------------------------------
Total correction                          0.31056955 Eh     194.88 kcal/mol


--------
ENTHALPY
--------

The enthalpy is H = U + kB*T
                kB is Boltzmann's constant
Total thermal energy              ...  -1667.71117065 Eh 
Thermal Enthalpy correction       ...      0.00094421 Eh       0.59 kcal/mol
-----------------------------------------------------------------------
Total Enthalpy                    ...  -1667.71022644 Eh


Note: Only C1 symmetry has been detected, increase convergence thresholds 
      if your molecule has a higher symmetry. Symmetry factor of 1.0 is   
      used for the rotational entropy correction. 
 

Note: Rotational entropy computed according to Herzberg 
Infrared and Raman Spectra, Chapter V,1, Van Nostrand Reinhold, 1945 
Point Group:  C1, Symmetry Number:   1  
Rotational constants in cm-1:     0.006955     0.003776     0.002594 

Vibrational entropy computed according to the QRRHO of S. Grimme
Chem.Eur.J. 2012 18 9955 using a reference frequency of 100.0 cm-1


-------
ENTROPY
-------

The entropy contributions are T*S = T*(S(el)+S(vib)+S(rot)+S(trans))
     S(el)   - electronic entropy
     S(vib)  - vibrational entropy
     S(rot)  - rotational entropy
     S(trans)- translational entropy
The entropies will be listed as multiplied by the temperature to get
units of energy

Electronic entropy                ...      0.00000000 Eh      0.00 kcal/mol
Vibrational entropy               ...      0.03863100 Eh     24.24 kcal/mol
Rotational entropy                ...      0.01730125 Eh     10.86 kcal/mol
Translational entropy             ...      0.02076707 Eh     13.03 kcal/mol
-----------------------------------------------------------------------
Final entropy term                ...      0.07669932 Eh     48.13 kcal/mol

In case the symmetry of your molecule has not been determined correctly
or in case you have a reason to use a different symmetry number we print 
out the resulting rotational entropy values for sn=1,12:

 non-linear molecules -----------------------------------
|  sn= 1 | S(rot)=       0.01730125 Eh     10.86 kcal/mol|
|  sn= 2 | S(rot)=       0.01664679 Eh     10.45 kcal/mol|
|  sn= 3 | S(rot)=       0.01626396 Eh     10.21 kcal/mol|
|  sn= 4 | S(rot)=       0.01599233 Eh     10.04 kcal/mol|
|  sn= 5 | S(rot)=       0.01578165 Eh      9.90 kcal/mol|
|  sn= 6 | S(rot)=       0.01560950 Eh      9.80 kcal/mol|
|  sn= 7 | S(rot)=       0.01546396 Eh      9.70 kcal/mol|
|  sn= 8 | S(rot)=       0.01533788 Eh      9.62 kcal/mol|
|  sn= 9 | S(rot)=       0.01522667 Eh      9.55 kcal/mol|
|  sn=10 | S(rot)=       0.01512719 Eh      9.49 kcal/mol|
|  sn=11 | S(rot)=       0.01503720 Eh      9.44 kcal/mol|
|  sn=12 | S(rot)=       0.01495505 Eh      9.38 kcal/mol|
 linear molecules ---------------------------------------
|  Dinfh | S(rot)=       0.01094808 Eh      6.87 kcal/mol|
|  Cinfv | S(rot)=       0.01160254 Eh      7.28 kcal/mol|
 --------------------------------------------------------


-------------------
GIBBS FREE ENERGY
-------------------

The Gibbs free energy is G = H - T*S

Total enthalpy                    ...  -1667.71022644 Eh 
Total entropy correction          ...     -0.07669932 Eh    -48.13 kcal/mol
-----------------------------------------------------------------------
Final Gibbs free energy         ...  -1667.78692576 Eh

For completeness - the Gibbs free energy minus the electronic energy
G-E(el)                           ...      0.23481444 Eh    147.35 kcal/mol


Maximum memory used throughout the entire PROP-calculation: 139.0 MB

--------------------------------
SUGGESTED CITATIONS FOR THIS RUN
--------------------------------

Below you find a list of papers that are relevant to this ORCA run
We neither can nor want to force you to cite these papers, but we appreciate if you do
You receive ORCA, which is the product of decades of hard work by many enthusiastic individuals, for free
The only thing we kindly ask in return is that you cite our papers,
We deeply appreciate it, if you show your appreciation for ORCA by not just citing the generic ORCA reference.

Please note that relegating all ORCA citations to the supporting information does *not* help us.
SI sections are not indexed - citations you put there will not count into any citation statistics
But we need these citations in order to attract the funding resources that allow us to do what we are doing

Therefore, if you are a happy ORCA user, please consider citing a few of the papers listed below in the main body of your paper

In addition to the list printed below, the program has created the file m1_00_Celecoxib-GitHubGFN2-B97-3C-TZ.bibtex that contains the list in bibtex format
You can import this file easily into all common literature databanks and citation aid programs


List of essential papers. We consider these as the minimum necessary citations

  1. Neese,F.
     Software update: the ORCA program system, version 5.0
     WIRES Comput. Molec. Sci., 2022 12(1)e1606
     doi.org/10.1002/wcms.1606

List of papers to cite with high priority. The work reported in these papers was absolutely
necessary for this run to complete.
Our perspective: the developers of density functionals and basis sets usually get cited in chemistry papers
Good! But without the algorithms to do something with them, the functionals or basis sets would not do anything.
Hence, in our opinion, the algorithm design and method developments papers are equally worthy of getting cited

  1. Neese,F.
     An improvement of the resolution of the identity approximation for the formation of the Coulomb matrix
     J. Comp. Chem., 2003 24(14)1740-1747
     doi.org/10.1002/jcc.10318
  2. Bykov,D.; Petrenko,T.; Izsak,R.; Kossmann,S.; Becker,U.; Valeev,E.; Neese,F.
     Efficient implementation of the analytic second derivatives of Hartree-Fock and hybrid DFT energies: a detailed analysis of different approximations
     Molec. Phys., 2015 113 1961-1977
     doi.org/10.1080/00268976.2015.1025114
  3. Neese,F.
     The SHARK Integral Generation and Digestion System
     J. Comp. Chem., 2022  1-16
     doi.org/10.1002/jcc.26942
  4. Grimme,S.; Antony,J.; Ehrlich,S.; Krieg,H.
     A consistent and accurate ab initio parametrization of density functional dispersion correction (DFT-D) for the 94 elements H-Pu
     J. Chem. Phys., 2010 132 154104
     doi.org/10.1063/1.3382344
  5. Grimme,S.; Ehrlich,S.; Goerigk,L.
     Effect of the damping function in dispersion corrected density functional theory
     J. Comput. Chem., 2011 32(7)1456-1465
     doi.org/10.1002/jcc.21759

List of suggested additional citations. These are papers that are important in the 'surrounding' of 
of this run, or papers that preceded the highly important papers. If you like your results we are grateful for a citation.

  1. Neese,F.
     The ORCA program system
     WIRES Comput. Molec. Sci., 2012 2(1)73-78
     doi.org/10.1002/wcms.81
  2. Neese,F.
     Software update: the ORCA program system, version 4.0
     WIRES Comput. Molec. Sci., 2018 8(1)1-6
     doi.org/10.1002/wcms.1327
  3. Neese,F.; Wennmohs,F.; Becker,U.; Riplinger,C.
     The ORCA quantum chemistry program package
     J. Chem. Phys., 2020 152 Art. No. L224108
     doi.org/10.1063/5.0004608

List of optional additional citations

  1. Neese,F.
     Approximate second-order SCF convergence for spin unrestricted wavefunctions
     Chem. Phys. Lett., 2000 325(1-3)93-98
     doi.org/10.1016/s0009-2614(00)00662-x

Timings for individual modules:

Sum of individual times          ...      854.414 sec (=  14.240 min)
Startup calculation              ...      103.892 sec (=   1.732 min)  12.2 %
SCF iterations                   ...      244.103 sec (=   4.068 min)  28.6 %
Property integrals               ...      122.510 sec (=   2.042 min)  14.3 %
SCF Response                     ...      178.834 sec (=   2.981 min)  20.9 %
Property calculations            ...       64.171 sec (=   1.070 min)   7.5 %
SCF Gradient evaluation          ...      140.522 sec (=   2.342 min)  16.4 %
Geometry relaxation              ...        0.383 sec (=   0.006 min)   0.0 %
                             ****ORCA TERMINATED NORMALLY****
TOTAL RUN TIME: 0 days 0 hours 14 minutes 20 seconds 407 msec
