
                                 *****************
                                 * O   R   C   A *
                                 *****************

                                            #,                                       
                                            ###                                      
                                            ####                                     
                                            #####                                    
                                            ######                                   
                                           ########,                                 
                                     ,,################,,,,,                         
                               ,,#################################,,                 
                          ,,##########################################,,             
                       ,#########################################, ''#####,          
                    ,#############################################,,   '####,        
                  ,##################################################,,,,####,       
                ,###########''''           ''''###############################       
              ,#####''   ,,,,##########,,,,          '''####'''          '####       
            ,##' ,,,,###########################,,,                        '##       
           ' ,,###''''                  '''############,,,                           
         ,,##''                                '''############,,,,        ,,,,,,###''
      ,#''                                            '''#######################'''  
     '                                                          ''''####''''         
             ,#######,   #######,   ,#######,      ##                                
            ,#'     '#,  ##    ##  ,#'     '#,    #''#        ,####,   ,####,        
            ##       ##  ##   ,#'  ##            #'  '#       #'       #'  '#        
            ##       ##  #######   ##           ,######,      #####,   #    #        
            '#,     ,#'  ##    ##  '#,     ,#' ,#      #,     #,   #   #,  ,#        
             '#######'   ##     ##  '#######'  #'      '#     '####' # '####'        



                #########################################################
                #                        -***-                          #
                #          Department of theory and spectroscopy        #
                #                                                       #
                #                      Frank Neese                      #
                #                                                       #
                #     Directorship, Architecture, Infrastructure        #
                #                    SHARK, DRIVERS                     #
                #        Core code/Algorithms in most modules           #
                #                                                       #
                #        Max Planck Institute fuer Kohlenforschung      #
                #                Kaiser Wilhelm Platz 1                 #
                #                 D-45470 Muelheim/Ruhr                 #
                #                      Germany                          #
                #                                                       #
                #                  All rights reserved                  #
                #                        -***-                          #
                #########################################################


                         Program Version 6.0.1  -  RELEASE   -


 With contributions from (in alphabetic order):
[Max-Planck-Institut fuer Kohlenforschung]                               
  Daniel Aravena         : Magnetic Suceptibility                        
  Michael Atanasov       : Ab Initio Ligand Field Theory (pilot matlab implementation)
  Alexander A. Auer      : GIAO ZORA, VPT2 properties, NMR spectrum      
  Ute Becker             : All parallelization in ORCA, NUMFREQ, NUMCALC 
  Giovanni Bistoni       : ED, misc. LED, open-shell LED, HFLD           
  Martin Brehm           : Molecular dynamics                            
  Dmytro Bykov           : pre 5.0 version of the SCF Hessian            
  Marcos Casanova-Páez   : Triplet and SCS-CIS(D). UHF-(DLPNO)-IP/EA/STEOM-CCSD. UHF-CVS-IP/STEOM-CCSD   
  Vijay G. Chilkuri      : MRCI spin determinant printing, contributions to CSF-ICE 
  Pauline Colinet        : FMM embedding                                 
  Dipayan Datta          : RHF DLPNO-CCSD density                        
  Achintya Kumar Dutta   : EOM-CC, STEOM-CC                              
  Nicolas Foglia         : Exact transition moments, OPA infrastructure, MCD improvements    
  Dmitry Ganyushin       : Spin-Orbit,Spin-Spin,Magnetic field MRCI      
  Miquel Garcia-Rates    : C-PCM and meta-GGA Hessian, CCSD/C-PCM, Gaussian charge scheme 
  Tiago L. C. Gouveia    : GS-ROHF, GS-ROCIS                             
  Yang Guo               : DLPNO-NEVPT2, F12-NEVPT2, CIM, IAO-localization        
  Andreas Hansen         : Spin unrestricted coupled pair/coupled cluster methods 
  Ingolf Harden          : AUTO-CI MPn and infrastructure                
  Benjamin Helmich-Paris : MC-RPA, TRAH-(SCF,CASSCF), AVAS, COSX integrals, SCF dyn. polar. 
  Lee Huntington         : MR-EOM, pCC                                   
  Robert Izsak           : Overlap fitted RIJCOSX, COSX-SCS-MP3, EOM     
  Riya Kayal             : Wick's Theorem for AUTO-CI, AUTO-CI UHF-CCSDT 
  Emily Kempfer          : AUTO-CI, RHF CISDT and CCSDT                  
  Christian Kollmar      : KDIIS, OOCD, Brueckner-CCSD(T), CCSD density, CASPT2, CASPT2-K, improved NEVPT2 
  Axel Koslowski         : Symmetry handling                             
  Simone Kossmann        : meta-GGA functionals, TD-DFT gradient, OOMP2, (MP2 Hessian; deprecated post 5.0) 
  Lucas Lang             : DCDCAS                                        
  Marvin Lechner         : AUTO-CI (C++ implementation), FIC-MRCC        
  Spencer Leger          : CASSCF response                               
  Dagmar Lenk            : GEPOL surface, SMD, ORCA-2-JSON               
  Dimitrios Liakos       : Extrapolation schemes; Compound Job, initial MDCI parallelization 
  Dimitrios Manganas     : Further ROCIS development; embedding schemes. LFT, Crystal Embedding 
  Dimitrios Pantazis     : SARC Basis sets                               
  Anastasios Papadopoulos: AUTO-CI, single reference methods and gradients 
  Taras Petrenko         : pre 6.0 DFT Hessian and TD-DFT gradient, (ASA, deprecated), ECA, 1-Electron XAS/XES, NRVS 
  Peter Pinski           : DLPNO-MP2, DLPNO-MP2 Gradient                 
  Christoph Reimann      : Effective Core Potentials                     
  Marius Retegan         : Local ZFS, SOC                                
  Christoph Riplinger    : Optimizer, TS searches, QM/MM, DLPNO-CCSD(T), (RO)-DLPNO pert. Triples 
  Michael Roemelt        : Original ROCIS implementation                 
  Masaaki Saitow         : Open-shell DLPNO-CCSD energy and density      
  Barbara Sandhoefer     : DKH picture change effects                    
  Kantharuban Sivalingam : CASSCF convergence/infrastructure, NEVPT2 and variants, FIC-MRCI 
  Bernardo de Souza      : ESD, SOC TD-DFT                               
  Georgi L. Stoychev     : AutoAux, RI-MP2 NMR, DLPNO-MP2 response, X2C  
  Van Anh Tran           : RI-MP2 g-tensors                              
  Willem Van den Heuvel  : Paramagnetic NMR                              
  Zikuan Wang            : NOTCH, Electric field optimization            
  Frank Wennmohs         : Technical directorship and infrastructure     
  Hang Xu                : AUTO-CI-Response properties                   
                                                                         
[FACCTs GmbH]                                                            
  Markus Bursch, Miquel Garcia-Rates, Christoph Riplinger, Bernardo de Souza, Georgi L. Stoychev 
                                                                 
  APM, Basis sets (HGBS, AHGBS, def-TZVP (Ac-Lr), def2-XVPD (La-Lu)), CI-OPT, improved COSX, DLPNO-Multilevel,           
  DOCKER, DRACO, updates on ESD, GOAT, IRC, LR-CPCM, MBIS, meta-GGA TD-DFT gradient, ML-optimized integration grids, 
  MM, NACMEs, nearIR, NEB, NEB-TS, NL-DFT gradient (VV10), 2- and 3-layer-ONIOM, interface openCOSMO-RS, QMMM,   
  Crystal-QMMM, SF, symmetry and pop. for TD-DFT, r2SCAN hybrids, SOLVATOR                                   
                                                                         
[Other institutions]                                                     
  V. Asgeirsson          : NEB                                           
  Christoph Bannwarth    : sTDA-DFT, sTD-DFT, PBEh-3c, B97-3c, D3        
  Sebastian Ehlert       : rSCAN, r2SCAN, r2SCAN-3c, D4, dhf basis sets  
  Marvin Friede          : D4 for Fr, Ra, Ac-Lr                          
  Lars Goerigk           : TD-DFT with DH, B97 family of functionals     
  Stefan Grimme          : VdW corrections, initial TS optimization, DFT functionals, gCP, sTDA/sTD-DF 
  Waldemar Hujo          : DFT-NL                                        
  H. Jonsson             : NEB                                           
  Holger Kruse           : gCP                                           
  Marcel Mueller         : wB97X-3c, vDZP basis set                      
  Hagen Neugebauer       : wr2SCAN                                       
  Tobias Risthaus        : range-separated hybrid DFT                    
  Lukas Wittmann         : regularized MP2, r2SCAN double-hybrids, wr2SCAN        
                                                                         
We gratefully acknowledge several colleagues who have allowed us to      
interface, adapt or use parts of their codes:                            
  Ed Valeev, F. Pavosevic, A. Kumar             : LibInt (2-el integral package), F12 methods 
  Garnet Chan, S. Sharma, J. Yang, R. Olivares  : DMRG                   
  Ulf Ekstrom                                   : XCFun DFT Library      
  Mihaly Kallay                                 : mrcc  (arbitrary order and MRCC methods)
  Frank Weinhold                                : gennbo (NPA and NBO analysis)           
  Simon Mueller                                 : openCOSMO-RS                            
  Christopher J. Cramer and Donald G. Truhlar   : smd solvation model                     
  S Lehtola, MJT Oliveira, MAL Marques          : LibXC Library                           
  Liviu Ungur et al                             : ANISO software                          


 Your calculation uses the libint2 library for the computation of 2-el integrals
 For citations please refer to: http://libint.valeyev.net

 Your ORCA version has been built with support for libXC version: 6.2.2
 For citations please refer to: https://libxc.gitlab.io

 This ORCA versions uses:
   CBLAS   interface :  Fast vector & matrix operations
   LAPACKE interface :  Fast linear algebra routines
   SCALAPACK package :  Parallel linear algebra routines
   Shared memory     :  Shared parallel matrices
   BLAS/LAPACK       :  OpenBLAS 0.3.27  USE64BITINT DYNAMIC_ARCH NO_AFFINITY Zen SINGLE_THREADED
        Core in use  :  Zen
   Copyright (c) 2011-2014, The OpenBLAS Project


NOTE: MaxCore=6000 MB was set to SCF,MP2,MDCI,CIPSI,MRCI and CIS
      => If you want to overwrite this, your respective input block should be placed after the MaxCore statement
Your calculation utilizes the atom-pairwise dispersion correction
with the Becke-Johnson damping scheme (D3BJ)


Your calculation employs the composite approach B97-3c by Grimme and coworkers.
For the correct reference, please check the publication list of the Grimme group:
http://www.thch.uni-bonn.de/tc/index.php?section=publikationen&subsection=grimme#2017
   

XCFun DFT library Copyright 2009-2010 Ulf Ekstrom and contributors.
See http://admol.org/xcfun for more information.
This is free software; see the source code for copying conditions.
There is ABSOLUTELY NO WARRANTY; not even for MERCHANTABILITY or FITNESS FOR A PARTICULAR PURPOSE.
For details see the documentation.
Scientific users of this library should cite U. Ekstrom, L. Visscher, R. Bast, A. J. Thorvaldsen and K. Ruud;
J.Chem.Theor.Comp. 2010, DOI: 10.1021/ct100117s
XCFun Version 0.99 

================================================================================

----- Orbital basis set information -----
Your calculation utilizes the basis: def2-mTZVP
----- AuxJ basis set information -----
Your calculation utilizes the basis: def2-mTZVP/J
================================================================================
                                        WARNINGS
                       Please study these warnings very carefully!
================================================================================


WARNING: Geometry Optimization
  ===> : Switching off AutoStart
         For restart on a previous wavefunction, please use MOREAD

================================================================================
                                       INPUT FILE
================================================================================
NAME = m1_00_Enzalutamide-GitHubGFN2-B97-3C-TZ_0_neg-B97-3C-TZ.inp
|  1> %pal nprocs 16 end
|  2> %MaxCore 6000
|  3> # put your comments here
|  4> ! B97-3C  OPT  FREQ DEFGRID3 NOTRAH
|  5> %scf MaxIter 800 end
|  6> %output
|  7> Print [P_Hirshfeld] 1
|  8> end
|  9> %geom
| 10> MaxIter 3000
| 11>  TolE 1e-6 #TolE 5e-6 Energy change (a.u.)
| 12>  TolRMSG 3e-5 #TolRMSG 1e-4 RMS gradient (a.u.)
| 13>  TolMaxG 1e-4 #TolMaxG 3e-3 Max. element of gradient (a.u.)
| 14>  TolRMSD 2e-3 #TolRMSD 2e-3 RMS displacement (a.u.)
| 15>  TolMaxD 4e-3 #TolMaxD 4e-3 Max. displacement (a.u.)
| 16> end
| 17> * xyz 0 1
| 18>  S   0.329043146001  -1.733855572131   0.847920678448
| 19>  C   0.180212165005  -0.111144347556   0.606357353956
| 20>  N   1.174967739161   0.794225099676   0.455448085135
| 21>  C   2.542975749881   0.431801041012   0.358650165005
| 22>  C   2.992976720013  -0.246146586531  -0.762346237319
| 23>  C   4.328075263398  -0.570535061169  -0.853326723802
| 24>  C   5.260556182551  -0.236562108837   0.125050973222
| 25>  C   4.768170300843   0.449909332110   1.233746785227
| 26>  C   3.432955301321   0.776179995477   1.364453892374
| 27>  H   3.076672182190   1.277267588031   2.250958025198
| 28>  H   5.483211412160   0.718319249195   1.996826637338
| 29>  C   6.742181762203  -0.515091488206   0.122288463783
| 30>  O   7.460170368691   0.008181463304   0.968621087569
| 31>  N   7.211592875816  -1.364926588700  -0.820097066884
| 32>  H   6.571820684337  -1.743443952449  -1.494641915090
| 33>  C   8.609741731892  -1.714764950830  -0.926418650157
| 34>  H   9.106211816500  -1.430988410984   0.029123871194
| 35>  H   9.093533866433  -1.166075355396  -1.769840655038
| 36>  H   8.712269588155  -2.818830778533  -1.090964519903
| 37>  F   4.708992917597  -1.241000020197  -1.976312385130
| 38>  H   2.313209898979  -0.538691778219  -1.546970258757
| 39>  C   0.690361680656   2.149315328355   0.148962784015
| 40>  C  -0.815210752014   1.945248543863   0.218118779748
| 41>  O  -1.663377116932   2.791940101638   0.061488348861
| 42>  N  -1.027900854691   0.601929603224   0.497938776385
| 43>  C  -2.314098428403   0.034931657189   0.653467110715
| 44>  C  -2.628942658844  -0.688336751058   1.792598224041
| 45>  C  -3.893532915364  -1.222785779270   1.927617085114
| 46>  C  -4.859124352301  -1.032697116637   0.937814013278
| 47>  C  -4.531982865340  -0.287109349689  -0.205351458749
| 48>  C  -3.260684095781   0.236428856806  -0.339351371979
| 49>  H  -3.003154626687   0.806921335440  -1.215356209182
| 50>  C  -5.554580558796  -0.063384298010  -1.290212324089
| 51>  F  -6.634371702602   0.600414914994  -0.821488884014
| 52>  F  -5.053573495787   0.661635784511  -2.315141841511
| 53>  F  -5.990284878191  -1.234611799008  -1.806430943247
| 54>  C  -6.142484891419  -1.602496733991   1.141598156950
| 55>  N  -7.174829716826  -2.084723253743   1.354454944645
| 56>  H  -4.150582359779  -1.791173974802   2.808314347141
| 57>  H  -1.889757573485  -0.835688570832   2.563177634800
| 58>  C   1.084219241586   2.577056608820  -1.258846320300
| 59>  H   0.608266293042   3.524994039668  -1.493490531087
| 60>  H   0.770968657345   1.841053054997  -1.996109501327
| 61>  H   2.162314719557   2.699058106405  -1.327307356151
| 62>  C   1.116736048368   3.175567367234   1.187644649355
| 63>  H   2.185342561745   3.361539078477   1.122530959435
| 64>  H   0.878001626687   2.838580923356   2.194039835010
| 65>  H   0.590461114479   4.108313718660   1.003221231765
| 66> *
| 67> 
| 68> 
| 69> 
| 70> 
| 71>                          ****END OF INPUT****
================================================================================

                       *****************************
                       * Geometry Optimization Run *
                       *****************************

Geometry optimization settings:
Update method            Update   .... BFGS
Choice of coordinates    CoordSys .... (2022) Redundant Internals
Initial Hessian          InHess   .... Almloef's Model
Max. no of cycles        MaxIter  .... 3000

Convergence Tolerances:
Energy Change            TolE     ....  1.0000e-06 Eh
Max. Gradient            TolMAXG  ....  1.0000e-04 Eh/bohr
RMS Gradient             TolRMSG  ....  3.0000e-05 Eh/bohr
Max. Displacement        TolMAXD  ....  4.0000e-03 bohr
RMS Displacement         TolRMSD  ....  2.0000e-03 bohr
Strict Convergence                .... False

------------------------------------------------------------------------------
                        ORCA OPTIMIZATION COORDINATE SETUP
------------------------------------------------------------------------------

The optimization will be done in redundant internal coordinates (2022)
Making redundant internal coordinates   ...  (2022 redundants) done
Evaluating the initial hessian          ...  (Almloef) done
Evaluating the coordinates              ...  done
Calculating the B-matrix                .... done
Calculating the G-matrix                .... done
Diagonalizing the G-matrix              .... done
Small eigenvalue found = 1.949e-03
Small eigenvalue found = 3.292e-03
Small eigenvalue found = 9.703e-03
Small eigenvalue found = 1.638e-02
Small eigenvalue found = 2.229e-02
Small eigenvalue found = 2.333e-02
Small eigenvalue found = 2.999e-02
The first mode is                       ....  107
The number of degrees of freedom        ....  138

    -----------------------------------------------------------------
                    Redundant Internal Coordinates


    -----------------------------------------------------------------
         Definition                    Initial Value    Approx d2E/dq
    -----------------------------------------------------------------
      1. B(C   1,S   0)                  1.6473         0.654566   
      2. B(N   2,C   1)                  1.3535         0.639857   
      3. B(C   3,N   2)                  1.4185         0.503955   
      4. B(C   4,C   3)                  1.3852         0.635939   
      5. B(C   5,C   4)                  1.3770         0.655477   
      6. B(C   6,C   5)                  1.3922         0.619718   
      7. B(C   7,C   6)                  1.3939         0.615961   
      8. B(C   8,C   7)                  1.3807         0.646508   
      9. B(C   8,C   3)                  1.3865         0.632949   
     10. B(H   9,C   8)                  1.0788         0.375157   
     11. B(H  10,C   7)                  1.0796         0.374072   
     12. B(C  11,C   6)                  1.5076         0.405644   
     13. B(O  12,C  11)                  1.2270         1.018321   
     14. B(N  13,C  11)                  1.3530         0.641030   
     15. B(H  14,N  13)                  1.0038         0.442693   
     16. B(C  15,N  13)                  1.4452         0.456939   
     17. B(H  16,C  15)                  1.1136         0.330213   
     18. B(H  17,C  15)                  1.1165         0.326748   
     19. B(H  18,C  15)                  1.1210         0.321388   
     20. B(F  19,H  14)                  1.9886         0.011040   
     21. B(F  19,C   5)                  1.3622         0.575763   
     22. B(H  20,C   4)                  1.0786         0.375551   
     23. B(C  21,N   2)                  1.4714         0.414946   
     24. B(C  22,C  21)                  1.5209         0.386257   
     25. B(O  23,C  22)                  1.2086         1.089499   
     26. B(N  24,C  22)                  1.3885         0.562607   
     27. B(N  24,C   1)                  1.4070         0.525638   
     28. B(C  25,N  24)                  1.4142         0.511983   
     29. B(C  26,C  25)                  1.3856         0.634998   
     30. B(C  27,C  26)                  1.3795         0.649338   
     31. B(C  28,C  27)                  1.3958         0.611663   
     32. B(C  29,C  28)                  1.4035         0.594615   
     33. B(C  30,C  29)                  1.3814         0.644866   
     34. B(C  30,C  25)                  1.3865         0.632939   
     35. B(H  31,C  30)                  1.0766         0.378206   
     36. B(C  32,C  29)                  1.5075         0.405703   
     37. B(F  33,C  32)                  1.3514         0.599172   
     38. B(F  34,C  32)                  1.3517         0.598470   
     39. B(F  35,C  32)                  1.3521         0.597697   
     40. B(C  36,C  28)                  1.4189         0.561909   
     41. B(N  37,C  36)                  1.1591         1.306806   
     42. B(H  38,C  27)                  1.0792         0.374614   
     43. B(H  39,C  26)                  1.0779         0.376448   
     44. B(C  40,C  21)                  1.5232         0.383082   
     45. B(H  41,C  40)                  1.0864         0.364950   
     46. B(H  42,C  40)                  1.0878         0.362976   
     47. B(H  43,C  40)                  1.0871         0.363911   
     48. B(C  44,C  21)                  1.5211         0.385943   
     49. B(H  45,C  44)                  1.0866         0.364598   
     50. B(H  46,C  44)                  1.0878         0.362975   
     51. B(H  47,C  44)                  1.0867         0.364445   
     52. A(S   0,C   1,N   2)          127.5068         0.462432   
     53. A(S   0,C   1,N  24)          126.0215         0.446177   
     54. A(N   2,C   1,N  24)          106.4663         0.418302   
     55. A(C   3,N   2,C  21)          122.5957         0.384721   
     56. A(C   1,N   2,C  21)          113.4029         0.401141   
     57. A(C   1,N   2,C   3)          123.0577         0.415177   
     58. A(N   2,C   3,C   8)          120.4034         0.417077   
     59. A(C   4,C   3,C   8)          120.0076         0.437682   
     60. A(N   2,C   3,C   4)          119.5756         0.417427   
     61. A(C   3,C   4,H  20)          121.1129         0.356965   
     62. A(C   5,C   4,H  20)          119.9424         0.358807   
     63. A(C   3,C   4,C   5)          118.9316         0.440453   
     64. A(C   6,C   5,F  19)          120.6702         0.423627   
     65. A(C   4,C   5,C   6)          123.1255         0.438403   
     66. A(C   4,C   5,F  19)          116.2024         0.427903   
     67. A(C   5,C   6,C   7)          116.1364         0.433520   
     68. A(C   5,C   6,C  11)          127.7807         0.402441   
     69. A(C   7,C   6,C  11)          116.0792         0.402010   
     70. A(C   6,C   7,C   8)          122.2280         0.436836   
     71. A(C   6,C   7,H  10)          116.7866         0.354799   
     72. A(C   8,C   7,H  10)          120.9854         0.357727   
     73. A(C   7,C   8,H   9)          120.4582         0.357903   
     74. A(C   3,C   8,H   9)          119.9660         0.356616   
     75. A(C   3,C   8,C   7)          119.5633         0.438985   
     76. A(C   6,C  11,N  13)          117.2764         0.402250   
     77. A(C   6,C  11,O  12)          119.6709         0.436845   
     78. A(O  12,C  11,N  13)          123.0424         0.471629   
     79. A(H  14,N  13,C  15)          118.4178         0.341974   
     80. A(C  11,N  13,C  15)          122.6114         0.408159   
     81. A(C  11,N  13,H  14)          118.9325         0.362119   
     82. A(H  17,C  15,H  18)          109.4828         0.281430   
     83. A(H  16,C  15,H  18)          109.6437         0.281890   
     84. A(N  13,C  15,H  18)          109.7377         0.327061   
     85. A(H  16,C  15,H  17)          109.2567         0.282613   
     86. A(N  13,C  15,H  17)          110.8449         0.327954   
     87. A(N  13,C  15,H  16)          107.8489         0.328525   
     88. A(N   2,C  21,C  40)          111.4680         0.369229   
     89. A(C  22,C  21,C  40)          109.6137         0.367009   
     90. A(C  40,C  21,C  44)          111.6651         0.366958   
     91. A(C  22,C  21,C  44)          109.6910         0.367478   
     92. A(N   2,C  21,C  44)          112.7544         0.369702   
     93. A(N   2,C  21,C  22)          101.1272         0.369753   
     94. A(O  23,C  22,N  24)          126.6085         0.466218   
     95. A(C  21,C  22,N  24)          106.8938         0.389781   
     96. A(C  21,C  22,O  23)          126.4977         0.438312   
     97. A(C  22,N  24,C  25)          123.3222         0.406951   
     98. A(C   1,N  24,C  25)          124.6972         0.402097   
     99. A(C   1,N  24,C  22)          111.9807         0.408851   
    100. A(C  26,C  25,C  30)          120.6259         0.437564   
    101. A(N  24,C  25,C  30)          118.9412         0.418251   
    102. A(N  24,C  25,C  26)          120.4214         0.418493   
    103. A(C  25,C  26,C  27)          119.4058         0.439587   
    104. A(C  27,C  26,H  39)          120.3777         0.358378   
    105. A(C  25,C  26,H  39)          120.2157         0.357020   
    106. A(C  26,C  27,C  28)          120.7967         0.436629   
    107. A(C  28,C  27,H  38)          119.0541         0.354465   
    108. A(C  26,C  27,H  38)          120.1482         0.358081   
    109. A(C  29,C  28,C  36)          122.7623         0.423289   
    110. A(C  27,C  28,C  36)          117.9810         0.425435   
    111. A(C  27,C  28,C  29)          119.2556         0.429770   
    112. A(C  30,C  29,C  32)          119.8817         0.405286   
    113. A(C  28,C  29,C  32)          120.4559         0.399531   
    114. A(C  28,C  29,C  30)          119.6609         0.433872   
    115. A(C  29,C  30,H  31)          119.9920         0.358241   
    116. A(C  25,C  30,H  31)          119.7575         0.357106   
    117. A(C  25,C  30,C  29)          120.2501         0.438782   
    118. A(F  34,C  32,F  35)          107.1319         0.419207   
    119. A(F  33,C  32,F  35)          107.4838         0.419294   
    120. A(C  29,C  32,F  35)          111.3944         0.395615   
    121. A(F  33,C  32,F  34)          107.1984         0.419391   
    122. A(C  29,C  32,F  34)          111.9521         0.395704   
    123. A(C  29,C  32,F  33)          111.4254         0.395786   
    124. L(C  28,C  36,N  37,C  27, 2) 179.8027         0.485220   
    125. L(C  28,C  36,N  37,C  27, 1) 177.4384         0.485220   
    126. A(H  42,C  40,H  43)          108.5911         0.291686   
    127. A(H  41,C  40,H  43)          108.8414         0.291934   
    128. A(C  21,C  40,H  43)          110.2520         0.326226   
    129. A(H  41,C  40,H  42)          108.5314         0.291816   
    130. A(C  21,C  40,H  42)          111.2200         0.326088   
    131. A(C  21,C  40,H  41)          109.3531         0.326379   
    132. A(H  46,C  44,H  47)          108.4577         0.291753   
    133. A(H  45,C  44,H  47)          108.6132         0.291958   
    134. A(C  21,C  44,H  47)          109.1136         0.326704   
    135. A(H  45,C  44,H  46)          108.9216         0.291772   
    136. A(C  21,C  44,H  46)          111.1742         0.326487   
    137. A(C  21,C  44,H  45)          110.4997         0.326727   
    138. D(C  21,N   2,C   1,N  24)     -3.8131         0.033323   
    139. D(C  21,N   2,C   1,S   0)    175.3735         0.033323   
    140. D(C   3,N   2,C   1,S   0)      6.2440         0.033323   
    141. D(C   3,N   2,C   1,N  24)   -172.9427         0.033323   
    142. D(C   4,C   3,N   2,C   1)     68.4598         0.020089   
    143. D(C   8,C   3,N   2,C   1)   -112.8723         0.020089   
    144. D(C   4,C   3,N   2,C  21)    -99.6855         0.020089   
    145. D(C   8,C   3,N   2,C  21)     78.9824         0.020089   
    146. D(C   5,C   4,C   3,C   8)      0.1856         0.028075   
    147. D(H  20,C   4,C   3,C   8)    178.8670         0.028075   
    148. D(H  20,C   4,C   3,N   2)     -2.4597         0.028075   
    149. D(C   5,C   4,C   3,N   2)    178.8588         0.028075   
    150. D(C   6,C   5,C   4,H  20)   -179.4331         0.029951   
    151. D(C   6,C   5,C   4,C   3)     -0.7359         0.029951   
    152. D(F  19,C   5,C   4,C   3)    179.7625         0.029951   
    153. D(F  19,C   5,C   4,H  20)      1.0653         0.029951   
    154. D(C  11,C   6,C   5,C   4)   -178.8071         0.026574   
    155. D(C   7,C   6,C   5,F  19)    179.9392         0.026574   
    156. D(C   7,C   6,C   5,C   4)      0.4591         0.026574   
    157. D(C  11,C   6,C   5,F  19)      0.6730         0.026574   
    158. D(H  10,C   7,C   6,C  11)     -0.3615         0.026233   
    159. D(H  10,C   7,C   6,C   5)   -179.7158         0.026233   
    160. D(C   8,C   7,C   6,C  11)    179.7217         0.026233   
    161. D(C   8,C   7,C   6,C   5)      0.3674         0.026233   
    162. D(C   3,C   8,C   7,H  10)    179.1934         0.029080   
    163. D(C   3,C   8,C   7,C   6)     -0.8932         0.029080   
    164. D(H   9,C   8,C   3,C   4)   -178.1217         0.027794   
    165. D(H   9,C   8,C   7,C   6)    177.8228         0.029080   
    166. D(H   9,C   8,C   3,N   2)      3.2162         0.027794   
    167. D(C   7,C   8,C   3,N   2)   -178.0614         0.027794   
    168. D(C   7,C   8,C   3,C   4)      0.6007         0.027794   
    169. D(H   9,C   8,C   7,H  10)     -2.0906         0.029080   
    170. D(N  13,C  11,C   6,C   7)    169.2973         0.011297   
    171. D(N  13,C  11,C   6,C   5)    -11.4361         0.011297   
    172. D(O  12,C  11,C   6,C   7)     -9.5681         0.011297   
    173. D(O  12,C  11,C   6,C   5)    169.6985         0.011297   
    174. D(C  15,N  13,C  11,O  12)     -1.0636         0.033455   
    175. D(C  15,N  13,C  11,C   6)   -179.8875         0.033455   
    176. D(H  14,N  13,C  11,O  12)   -178.7757         0.033455   
    177. D(H  14,N  13,C  11,C   6)      2.4004         0.033455   
    178. D(H  17,C  15,N  13,H  14)     74.8006         0.017819   
    179. D(H  17,C  15,N  13,C  11)   -102.9227         0.017819   
    180. D(H  16,C  15,N  13,H  14)   -165.6383         0.017819   
    181. D(H  16,C  15,N  13,C  11)     16.6384         0.017819   
    182. D(H  18,C  15,N  13,C  11)    136.0281         0.017819   
    183. D(C  44,C  21,N   2,C   1)    120.3425         0.014685   
    184. D(C  40,C  21,N   2,C   3)     56.0509         0.014685   
    185. D(C  40,C  21,N   2,C   1)   -113.1357         0.014685   
    186. D(C  22,C  21,N   2,C   3)    172.4719         0.014685   
    187. D(C  22,C  21,N   2,C   1)      3.2853         0.014685   
    188. D(N  24,C  22,C  21,C  40)    116.3460         0.011111   
    189. D(N  24,C  22,C  21,N   2)     -1.4328         0.011111   
    190. D(O  23,C  22,C  21,C  44)     59.1742         0.011111   
    191. D(O  23,C  22,C  21,C  40)    -63.7680         0.011111   
    192. D(O  23,C  22,C  21,N   2)    178.4532         0.011111   
    193. D(C  25,N  24,C  22,C  21)    179.2507         0.025292   
    194. D(C   1,N  24,C  22,O  23)    179.4164         0.025292   
    195. D(C   1,N  24,C  22,C  21)     -0.6978         0.025292   
    196. D(C  25,N  24,C   1,N   2)   -177.1993         0.021925   
    197. D(C  25,N  24,C   1,S   0)      3.5984         0.021925   
    198. D(C  22,N  24,C   1,N   2)      2.7483         0.021925   
    199. D(C  25,N  24,C  22,O  23)     -0.6352         0.025292   
    200. D(C  22,N  24,C   1,S   0)   -176.4540         0.021925   
    201. D(C  30,C  25,N  24,C  22)     52.4005         0.020757   
    202. D(C  30,C  25,N  24,C   1)   -127.6576         0.020757   
    203. D(C  26,C  25,N  24,C  22)   -126.3723         0.020757   
    204. D(C  26,C  25,N  24,C   1)     53.5696         0.020757   
    205. D(H  39,C  26,C  25,C  30)   -179.6137         0.027986   
    206. D(H  39,C  26,C  25,N  24)     -0.8618         0.027986   
    207. D(C  27,C  26,C  25,C  30)      0.7077         0.027986   
    208. D(C  27,C  26,C  25,N  24)    179.4596         0.027986   
    209. D(H  38,C  27,C  26,H  39)      0.1043         0.029353   
    210. D(H  38,C  27,C  26,C  25)    179.7824         0.029353   
    211. D(C  28,C  27,C  26,H  39)    179.7321         0.029353   
    212. D(C  28,C  27,C  26,C  25)     -0.5899         0.029353   
    213. D(C  36,C  28,C  27,H  38)     -0.0197         0.025847   
    214. D(C  36,C  28,C  27,C  26)   -179.6514         0.025847   
    215. D(C  29,C  28,C  27,H  38)    179.6020         0.025847   
    216. D(C  29,C  28,C  27,C  26)     -0.0298         0.025847   
    217. D(C  32,C  29,C  28,C  36)     -0.3107         0.024351   
    218. D(C  32,C  29,C  28,C  27)   -179.9134         0.024351   
    219. D(C  30,C  29,C  28,C  36)   -179.8576         0.024351   
    220. D(C  30,C  29,C  28,C  27)      0.5397         0.024351   
    221. D(H  31,C  30,C  29,C  28)    179.8319         0.028923   
    222. D(C  25,C  30,C  29,C  32)   -179.9772         0.028923   
    223. D(C  25,C  30,C  29,C  28)     -0.4277         0.028923   
    224. D(H  31,C  30,C  25,C  26)    179.5421         0.027793   
    225. D(H  31,C  30,C  25,N  24)      0.7719         0.027793   
    226. D(C  29,C  30,C  25,C  26)     -0.1989         0.027793   
    227. D(H  31,C  30,C  29,C  32)      0.2824         0.028923   
    228. D(C  29,C  30,C  25,N  24)   -178.9691         0.027793   
    229. D(F  35,C  32,C  29,C  28)    -59.3458         0.012200   
    230. D(F  34,C  32,C  29,C  30)      0.2652         0.012200   
    231. D(F  34,C  32,C  29,C  28)   -179.2806         0.012200   
    232. D(F  33,C  32,C  29,C  30)   -119.7759         0.012200   
    233. D(F  33,C  32,C  29,C  28)     60.6782         0.012200   
    234. D(H  42,C  40,C  21,C  44)   -179.6745         0.011687   
    235. D(H  42,C  40,C  21,C  22)    -57.9086         0.011687   
    236. D(H  42,C  40,C  21,N   2)     53.2095         0.011687   
    237. D(H  41,C  40,C  21,C  44)    -59.8242         0.011687   
    238. D(H  41,C  40,C  21,C  22)     61.9418         0.011687   
    239. D(H  41,C  40,C  21,N   2)    173.0599         0.011687   
    240. D(H  46,C  44,C  21,C  40)   -177.0505         0.011853   
    241. D(H  46,C  44,C  21,C  22)     61.2281         0.011853   
    242. D(H  46,C  44,C  21,N   2)    -50.6340         0.011853   
    243. D(H  45,C  44,C  21,C  40)    -55.9804         0.011853   
    244. D(H  45,C  44,C  21,C  22)   -177.7017         0.011853   
    245. D(H  45,C  44,C  21,N   2)     70.4361         0.011853   
    -----------------------------------------------------------------

Number of atoms                         .... 48
Number of degrees of freedom            .... 245


         *************************************************************
         *                GEOMETRY OPTIMIZATION CYCLE   1            *
         *************************************************************
---------------------------------
CARTESIAN COORDINATES (ANGSTROEM)
---------------------------------
  S      0.329043   -1.733856    0.847921
  C      0.180212   -0.111144    0.606357
  N      1.174968    0.794225    0.455448
  C      2.542976    0.431801    0.358650
  C      2.992977   -0.246147   -0.762346
  C      4.328075   -0.570535   -0.853327
  C      5.260556   -0.236562    0.125051
  C      4.768170    0.449909    1.233747
  C      3.432955    0.776180    1.364454
  H      3.076672    1.277268    2.250958
  H      5.483211    0.718319    1.996827
  C      6.742182   -0.515091    0.122288
  O      7.460170    0.008181    0.968621
  N      7.211593   -1.364927   -0.820097
  H      6.571821   -1.743444   -1.494642
  C      8.609742   -1.714765   -0.926419
  H      9.106212   -1.430988    0.029124
  H      9.093534   -1.166075   -1.769841
  H      8.712270   -2.818831   -1.090965
  F      4.708993   -1.241000   -1.976312
  H      2.313210   -0.538692   -1.546970
  C      0.690362    2.149315    0.148963
  C     -0.815211    1.945249    0.218119
  O     -1.663377    2.791940    0.061488
  N     -1.027901    0.601930    0.497939
  C     -2.314098    0.034932    0.653467
  C     -2.628943   -0.688337    1.792598
  C     -3.893533   -1.222786    1.927617
  C     -4.859124   -1.032697    0.937814
  C     -4.531983   -0.287109   -0.205351
  C     -3.260684    0.236429   -0.339351
  H     -3.003155    0.806921   -1.215356
  C     -5.554581   -0.063384   -1.290212
  F     -6.634372    0.600415   -0.821489
  F     -5.053573    0.661636   -2.315142
  F     -5.990285   -1.234612   -1.806431
  C     -6.142485   -1.602497    1.141598
  N     -7.174830   -2.084723    1.354455
  H     -4.150582   -1.791174    2.808314
  H     -1.889758   -0.835689    2.563178
  C      1.084219    2.577057   -1.258846
  H      0.608266    3.524994   -1.493491
  H      0.770969    1.841053   -1.996110
  H      2.162315    2.699058   -1.327307
  C      1.116736    3.175567    1.187645
  H      2.185343    3.361539    1.122531
  H      0.878002    2.838581    2.194040
  H      0.590461    4.108314    1.003221

----------------------------
CARTESIAN COORDINATES (A.U.)
----------------------------
  NO LB      ZA    FRAG     MASS         X           Y           Z
   0 S    16.0000    0    32.060    0.621801   -3.276512    1.602338
   1 C     6.0000    0    12.011    0.340552   -0.210032    1.145849
   2 N     7.0000    0    14.007    2.220367    1.500868    0.860672
   3 C     6.0000    0    12.011    4.805528    0.815986    0.677751
   4 C     6.0000    0    12.011    5.655906   -0.465150   -1.440626
   5 C     6.0000    0    12.011    8.178877   -1.078155   -1.612554
   6 C     6.0000    0    12.011    9.941010   -0.447038    0.236312
   7 C     6.0000    0    12.011    9.010536    0.850205    2.331444
   8 C     6.0000    0    12.011    6.487345    1.466768    2.578444
   9 H     1.0000    0     1.008    5.814068    2.413686    4.253694
  10 H     1.0000    0     1.008   10.361768    1.357427    3.773455
  11 C     6.0000    0    12.011   12.740877   -0.973382    0.231092
  12 O     8.0000    0    15.999   14.097679    0.015461    1.830429
  13 N     7.0000    0    14.007   13.627936   -2.579337   -1.549759
  14 H     1.0000    0     1.008   12.418941   -3.294632   -2.824464
  15 C     6.0000    0    12.011   16.270054   -3.240436   -1.750678
  16 H     1.0000    0     1.008   17.208246   -2.704176    0.055036
  17 H     1.0000    0     1.008   17.184289   -2.203563   -3.344514
  18 H     1.0000    0     1.008   16.463804   -5.326818   -2.061624
  19 F     9.0000    0    18.998    8.898707   -2.345150   -3.734689
  20 H     1.0000    0     1.008    4.371333   -1.017980   -2.923350
  21 C     6.0000    0    12.011    1.304595    4.061617    0.281499
  22 C     6.0000    0    12.011   -1.540525    3.675987    0.412185
  23 O     8.0000    0    15.999   -3.143327    5.276002    0.116196
  24 N     7.0000    0    14.007   -1.942451    1.137482    0.940968
  25 C     6.0000    0    12.011   -4.373012    0.066011    1.234874
  26 C     6.0000    0    12.011   -4.967982   -1.300768    3.387520
  27 C     6.0000    0    12.011   -7.357711   -2.310730    3.642668
  28 C     6.0000    0    12.011   -9.182414   -1.951515    1.772212
  29 C     6.0000    0    12.011   -8.564206   -0.542558   -0.388058
  30 C     6.0000    0    12.011   -6.161800    0.446786   -0.641281
  31 H     1.0000    0     1.008   -5.675140    1.524860   -2.296690
  32 C     6.0000    0    12.011  -10.496636   -0.119779   -2.438148
  33 F     9.0000    0    18.998  -12.537146    1.134620   -1.552389
  34 F     9.0000    0    18.998   -9.549870    1.250310   -4.374984
  35 F     9.0000    0    18.998  -11.319998   -2.333078   -3.413660
  36 C     6.0000    0    12.011  -11.607614   -3.028280    2.157308
  37 N     7.0000    0    14.007  -13.558463   -3.939556    2.559549
  38 H     1.0000    0     1.008   -7.843464   -3.384828    5.306945
  39 H     1.0000    0     1.008   -3.571124   -1.579223    4.843704
  40 C     6.0000    0    12.011    2.048877    4.869931   -2.378875
  41 H     1.0000    0     1.008    1.149457    6.661273   -2.822288
  42 H     1.0000    0     1.008    1.456920    3.479086   -3.772100
  43 H     1.0000    0     1.008    4.086183    5.100481   -2.508247
  44 C     6.0000    0    12.011    2.110325    6.000953    2.244323
  45 H     1.0000    0     1.008    4.129699    6.352388    2.121276
  46 H     1.0000    0     1.008    1.659183    5.364141    4.146134
  47 H     1.0000    0     1.008    1.115810    7.763588    1.895813

--------------------------------
INTERNAL COORDINATES (ANGSTROEM)
--------------------------------
 S      0   0   0     0.000000000000     0.00000000     0.00000000
 C      1   0   0     1.647329723827     0.00000000     0.00000000
 N      2   1   0     1.353516197063   127.50677420     0.00000000
 C      3   2   1     1.418508707423   123.05768245     6.24397287
 C      4   3   2     1.385188360056   119.57560011    68.45975853
 C      5   4   3     1.376950780510   118.93160192   178.85882013
 C      6   5   4     1.392221791062   123.12550611   359.26410521
 C      7   6   5     1.393877074673   116.13636496     0.45913777
 C      8   7   6     1.380701266959   122.22799915     0.36735947
 H      9   8   7     1.078849393522   120.45821820   177.82278461
 H      8   7   6     1.079638150104   116.78657065   180.28421562
 C      7   6   5     1.507581044226   127.78068223   181.19289775
 O     12   7   6     1.227029392848   119.67087313   169.69850446
 N     12   7   6     1.353017730861   117.27638786   348.56388885
 H     14  12   7     1.003790119443   118.93250860     2.40036677
 C     14  12   7     1.445168288620   122.61141940   180.11250139
 H     16  14  12     1.113585730686   107.84888509    16.63838617
 H     16  14  12     1.116456797148   110.84486925   257.07729296
 H     16  14  12     1.120958811225   109.73768299   136.02812554
 F      6   5   4     1.362247523805   116.20237843   179.76249450
 H      5   4   3     1.078564080236   121.11285756   357.54026921
 C      3   2   1     1.471409460213   113.40293932   175.37351056
 C     22   3   2     1.520912276989   101.12722317     3.28528888
 O     23  22   3     1.208638022100   126.49766651   178.45323945
 N     23  22   3     1.388539551678   106.89375771   358.56721732
 C     25  23  22     1.414206467320   123.32215294   179.25067507
 C     26  25  23     1.385591488556   120.42140365   233.62773644
 C     27  26  25     1.379512368008   119.40584463   179.45962362
 C     28  27  26     1.395783165024   120.79667893   359.41012888
 C     29  28  27     1.403477811420   119.25558281   359.97024832
 C     30  29  28     1.381393785960   119.66085113     0.53969619
 H     31  30  29     1.076646446348   119.99198093   179.83191593
 C     30  29  28     1.507541720337   120.45593613   180.08657993
 F     33  30  29     1.351399264726   111.42539413    60.67821148
 F     33  30  29     1.351718429602   111.95208278   180.71935685
 F     33  30  29     1.352070181536   111.39437013   300.65415557
 C     29  28  27     1.418877674260   117.98101212   180.34856073
 N     37  29  28     1.159131686636   177.43629667     2.42210947
 H     28  27  26     1.079243820939   120.14819265   179.78236339
 H     27  26  25     1.077914550182   120.21565579   359.13822797
 C     22   3   2     1.523158841194   111.46802223   246.86433422
 H     41  22   3     1.086358360619   109.35311827   173.05986030
 H     41  22   3     1.087834618803   111.21997804    53.20948858
 H     41  22   3     1.087134370013   110.25197198   292.69252290
 C     22   3   2     1.521133908021   112.75441713   120.34248403
 H     45  22   3     1.086620978276   110.49968471    70.43611602
 H     45  22   3     1.087835124071   111.17420869   309.36596383
 H     45  22   3     1.086735045489   109.11362721   189.79019691

---------------------------
INTERNAL COORDINATES (A.U.)
---------------------------
 S      0   0   0     0.000000000000     0.00000000     0.00000000
 C      1   0   0     3.113002030302     0.00000000     0.00000000
 N      2   1   0     2.557774930276   127.50677420     0.00000000
 C      3   2   1     2.680592975612   123.05768245     6.24397287
 C      4   3   2     2.617626644401   119.57560011    68.45975853
 C      5   4   3     2.602059875053   118.93160192   178.85882013
 C      6   5   4     2.630917902784   123.12550611   359.26410521
 C      7   6   5     2.634045935483   116.13636496     0.45913777
 C      8   7   6     2.609147267310   122.22799915     0.36735947
 H      9   8   7     2.038729893504   120.45821820   177.82278461
 H      8   7   6     2.040220427431   116.78657065   180.28421562
 C      7   6   5     2.848915298278   127.78068223   181.19289775
 O     12   7   6     2.318749510754   119.67087313   169.69850446
 N     12   7   6     2.556832965668   117.27638786   348.56388885
 H     14  12   7     1.896888421683   118.93250860     2.40036677
 C     14  12   7     2.730972282920   122.61141940   180.11250139
 H     16  14  12     2.104372057639   107.84888509    16.63838617
 H     16  14  12     2.109797586965   110.84486925   257.07729296
 H     16  14  12     2.118305160620   109.73768299   136.02812554
 F      6   5   4     2.574274746604   116.20237843   179.76249450
 H      5   4   3     2.038190729531   121.11285756   357.54026921
 C      3   2   1     2.780560910663   113.40293932   175.37351056
 C     22   3   2     2.874107677227   101.12722317     3.28528888
 O     23  22   3     2.283994856813   126.49766651   178.45323945
 N     23  22   3     2.623959478789   106.89375771   358.56721732
 C     25  23  22     2.672462920055   123.32215294   179.25067507
 C     26  25  23     2.618388446862   120.42140365   233.62773644
 C     27  26  25     2.606900573893   119.40584463   179.45962362
 C     28  27  26     2.637647924233   120.79667893   359.41012888
 C     29  28  27     2.652188698619   119.25558281   359.97024832
 C     30  29  28     2.610455938564   119.66085113     0.53969619
 H     31  30  29     2.034566926656   119.99198093   179.83191593
 C     30  29  28     2.848840986897   120.45593613   180.08657993
 F     33  30  29     2.553774507915   111.42539413    60.67821148
 F     33  30  29     2.554377642122   111.95208278   180.71935685
 F     33  30  29     2.555042356944   111.39437013   300.65415557
 C     29  28  27     2.681290221887   117.98101212   180.34856073
 N     37  29  28     2.190441440893   177.43629667     2.42210947
 H     28  27  26     2.039475253302   120.14819265   179.78236339
 H     27  26  25     2.036963295612   120.21565579   359.13822797
 C     22   3   2     2.878353068318   111.46802223   246.86433422
 H     41  22   3     2.052919784865   109.35311827   173.05986030
 H     41  22   3     2.055709508536   111.21997804    53.20948858
 H     41  22   3     2.054386230098   110.25197198   292.69252290
 C     22   3   2     2.874526499181   112.75441713   120.34248403
 H     45  22   3     2.053416060315   110.49968471    70.43611602
 H     45  22   3     2.055710463354   111.17420869   309.36596383
 H     45  22   3     2.053631616109   109.11362721   189.79019691

---------------------
BASIS SET INFORMATION
---------------------
There are 6 groups of distinct atoms

 Group   1 Type S   : 14s9p1d contracted to 5s4p1d pattern {73211/6111/1}
 Group   2 Type C   : 11s6p1d contracted to 5s3p1d pattern {62111/411/1}
 Group   3 Type N   : 11s6p1d contracted to 5s3p1d pattern {62111/411/1}
 Group   4 Type H   : 5s contracted to 3s pattern {311}
 Group   5 Type O   : 11s6p2d contracted to 5s3p2d pattern {62111/411/11}
 Group   6 Type F   : 11s6p1d contracted to 5s3p1d pattern {62111/411/1}

Atom   0S    basis set group =>   1
Atom   1C    basis set group =>   2
Atom   2N    basis set group =>   3
Atom   3C    basis set group =>   2
Atom   4C    basis set group =>   2
Atom   5C    basis set group =>   2
Atom   6C    basis set group =>   2
Atom   7C    basis set group =>   2
Atom   8C    basis set group =>   2
Atom   9H    basis set group =>   4
Atom  10H    basis set group =>   4
Atom  11C    basis set group =>   2
Atom  12O    basis set group =>   5
Atom  13N    basis set group =>   3
Atom  14H    basis set group =>   4
Atom  15C    basis set group =>   2
Atom  16H    basis set group =>   4
Atom  17H    basis set group =>   4
Atom  18H    basis set group =>   4
Atom  19F    basis set group =>   6
Atom  20H    basis set group =>   4
Atom  21C    basis set group =>   2
Atom  22C    basis set group =>   2
Atom  23O    basis set group =>   5
Atom  24N    basis set group =>   3
Atom  25C    basis set group =>   2
Atom  26C    basis set group =>   2
Atom  27C    basis set group =>   2
Atom  28C    basis set group =>   2
Atom  29C    basis set group =>   2
Atom  30C    basis set group =>   2
Atom  31H    basis set group =>   4
Atom  32C    basis set group =>   2
Atom  33F    basis set group =>   6
Atom  34F    basis set group =>   6
Atom  35F    basis set group =>   6
Atom  36C    basis set group =>   2
Atom  37N    basis set group =>   3
Atom  38H    basis set group =>   4
Atom  39H    basis set group =>   4
Atom  40C    basis set group =>   2
Atom  41H    basis set group =>   4
Atom  42H    basis set group =>   4
Atom  43H    basis set group =>   4
Atom  44C    basis set group =>   2
Atom  45H    basis set group =>   4
Atom  46H    basis set group =>   4
Atom  47H    basis set group =>   4
---------------------------------
AUXILIARY/J BASIS SET INFORMATION
---------------------------------
There are 6 groups of distinct atoms

 Group   1 Type S   : 14s5p5d2f1g contracted to 8s4p3d1f1g pattern {71111111/2111/311/2/1}
 Group   2 Type C   : 8s3p3d contracted to 6s3p3d pattern {311111/111/111}
 Group   3 Type N   : 8s3p3d contracted to 6s3p3d pattern {311111/111/111}
 Group   4 Type H   : 5s2p contracted to 3s1p pattern {311/2}
 Group   5 Type O   : 8s3p3d contracted to 6s3p3d pattern {311111/111/111}
 Group   6 Type F   : 8s3p4d contracted to 6s3p4d pattern {311111/111/1111}

Atom   0S    basis set group =>   1
Atom   1C    basis set group =>   2
Atom   2N    basis set group =>   3
Atom   3C    basis set group =>   2
Atom   4C    basis set group =>   2
Atom   5C    basis set group =>   2
Atom   6C    basis set group =>   2
Atom   7C    basis set group =>   2
Atom   8C    basis set group =>   2
Atom   9H    basis set group =>   4
Atom  10H    basis set group =>   4
Atom  11C    basis set group =>   2
Atom  12O    basis set group =>   5
Atom  13N    basis set group =>   3
Atom  14H    basis set group =>   4
Atom  15C    basis set group =>   2
Atom  16H    basis set group =>   4
Atom  17H    basis set group =>   4
Atom  18H    basis set group =>   4
Atom  19F    basis set group =>   6
Atom  20H    basis set group =>   4
Atom  21C    basis set group =>   2
Atom  22C    basis set group =>   2
Atom  23O    basis set group =>   5
Atom  24N    basis set group =>   3
Atom  25C    basis set group =>   2
Atom  26C    basis set group =>   2
Atom  27C    basis set group =>   2
Atom  28C    basis set group =>   2
Atom  29C    basis set group =>   2
Atom  30C    basis set group =>   2
Atom  31H    basis set group =>   4
Atom  32C    basis set group =>   2
Atom  33F    basis set group =>   6
Atom  34F    basis set group =>   6
Atom  35F    basis set group =>   6
Atom  36C    basis set group =>   2
Atom  37N    basis set group =>   3
Atom  38H    basis set group =>   4
Atom  39H    basis set group =>   4
Atom  40C    basis set group =>   2
Atom  41H    basis set group =>   4
Atom  42H    basis set group =>   4
Atom  43H    basis set group =>   4
Atom  44C    basis set group =>   2
Atom  45H    basis set group =>   4
Atom  46H    basis set group =>   4
Atom  47H    basis set group =>   4


           ************************************************************
           *        Program running with 16 parallel MPI-processes    *
           *              working on a common directory               *
           ************************************************************
------------------------------------------------------------------------------
                             ORCA STARTUP CALCULATIONS
                           -- RI-GTO INTEGRALS CHOSEN --
------------------------------------------------------------------------------
------------------------------------------------------------------------------
                   ___                                                        
                  /   \      - P O W E R E D   B Y -                         
                 /     \                                                     
                 |  |  |   _    _      __       _____    __    __             
                 |  |  |  | |  | |    /  \     |  _  \  |  |  /  |          
                  \  \/   | |  | |   /    \    | | | |  |  | /  /          
                 / \  \   | |__| |  /  /\  \   | |_| |  |  |/  /          
                |  |  |   |  __  | /  /__\  \  |    /   |      \           
                |  |  |   | |  | | |   __   |  |    \   |  |\   \          
                \     /   | |  | | |  |  |  |  | |\  \  |  | \   \       
                 \___/    |_|  |_| |__|  |__|  |_| \__\ |__|  \__/        
                                                                              
                      - O R C A' S   B I G   F R I E N D -                    
                                      &                                       
                       - I N T E G R A L  F E E D E R -                       
                                                                              
 v1 FN, 2020, v2 2021, v3 2022-2024                                           
------------------------------------------------------------------------------


----------------------
SHARK INTEGRAL PACKAGE
----------------------

Number of atoms                             ...     48
Number of basis functions                   ...    669
Number of shells                            ...    339
Maximum angular momentum                    ...      2
Integral batch strategy                     ... SHARK/LIBINT Hybrid
RI-J (if used) integral strategy            ... SPLIT-RIJ (Revised 2003 algorithm where possible)
Printlevel                                  ...      1
Contraction scheme used                     ... SEGMENTED contraction
Prescreening option                         ... SCHWARTZ
   Thresh                                   ... 2.500e-11
   Tcut                                     ... 2.500e-12
   Tpresel                                  ... 2.500e-12 
Coulomb Range Separation                    ... NOT USED
Exchange Range Separation                   ... NOT USED
Multipole approximations                    ... NOT USED
Finite Nucleus Model                        ... NOT USED
CABS basis                                  ... NOT available
Auxiliary Coulomb fitting basis             ... AVAILABLE
   # of basis functions in Aux-J            ...   1097
   # of shells in Aux-J                     ...    457
   Maximum angular momentum in Aux-J        ...      4
Auxiliary J/K fitting basis                 ... NOT available
Auxiliary Correlation fitting basis         ... NOT available
Auxiliary 'external' fitting basis          ... NOT available

Checking pre-screening integrals            ... done (  0.0 sec) Dimension = 339
Check shell pair data                       ... done (  0.0 sec)
Shell pair information
Shell pair cut-off parameter TPreSel        ...   2.5e-12
Total number of shell pairs                 ...     57630
Shell pairs after pre-screening             ...     32957
Total number of primitive shell pairs       ...    221550
Primitive shell pairs kept                  ...     76295
          la=0 lb=0:  11444 shell pairs
          la=1 lb=0:  12416 shell pairs
          la=1 lb=1:   3311 shell pairs
          la=2 lb=0:   3523 shell pairs
          la=2 lb=1:   1971 shell pairs
          la=2 lb=2:    292 shell pairs

Calculating one electron integrals          ... done (  0.0 sec)
Calculating RI/J V-Matrix + Cholesky decomp.... done (  0.0 sec)
Calculating Nuclear repulsion               ... done (  0.0 sec) ENN=   3317.547373626691 Eh

Diagonalization of the overlap matrix:
Smallest eigenvalue                        ... 6.114e-06
Time for diagonalization                   ...    0.047 sec
Threshold for overlap eigenvalues          ... 1.000e-07
Number of eigenvalues below threshold      ... 0
Time for construction of square roots      ...    0.030 sec
Total time needed                          ...    0.082 sec

-------------------
DFT GRID GENERATION
-------------------

General Integration Accuracy     IntAcc      ... 4.959
Radial Grid Type                 RadialGrid  ... OptM3 with GC (2021)
Angular Grid (max. ang.)         AngularGrid ... 6 (Lebedev-590)
Angular grid pruning method      GridPruning ... 4 (adaptive)
Weight generation scheme         WeightScheme... mBecke (2022)
Basis function cutoff            BFCut       ... 1.0000e-11
Integration weight cutoff        WCut        ... 1.0000e-14
Partially contracted basis set               ... off
Rotationally invariant grid construction     ... off
Angular grids for H and He will be reduced by one unit
Diffuse basis detected: some atoms will have their outermost
                        angular grid increased by 1.

Total number of grid points                  ...   592609
Total number of batches                      ...     9285
Average number of points per batch           ...       63
Average number of grid points per atom       ...    12346
Initializing property integral containers    ... done (  0.0 sec)

SHARK setup successfully completed in   4.9 seconds

Maximum memory used throughout the entire STARTUP-calculation: 143.6 MB


           ************************************************************
           *        Program running with 16 parallel MPI-processes    *
           *              working on a common directory               *
           ************************************************************
-------------------------------------------------------------------------------
                                 ORCA GUESS
                   Start orbitals & Density for SCF / CASSCF
-------------------------------------------------------------------------------

------------
SCF SETTINGS
------------
Hamiltonian:
 Density Functional     Method          .... DFT(GTOs)
 Exchange Functional    Exchange        .... B973C
 Correlation Functional Correlation     .... B973C
 Gradients option       PostSCFGGA      .... off
 RI-approximation to the Coulomb term is turned on
   Number of AuxJ basis functions       .... 1097


General Settings:
 Integral files         IntName         .... m1_00_Enzalutamide-GitHubGFN2-B97-3C-TZ_0_neg-B97-3C-TZ
 Hartree-Fock type      HFTyp           .... RHF
 Total Charge           Charge          ....    0
 Multiplicity           Mult            ....    1
 Number of Electrons    NEL             ....  238
 Basis Dimension        Dim             ....  669
 Nuclear Repulsion      ENuc            ....   3317.5473736267 Eh

Convergence Acceleration:
 AO-DIIS                CNVDIIS         .... on
   Start iteration      DIISMaxIt       ....    12
   Startup error        DIISStart       ....  0.200000
   # of expansion vecs  DIISMaxEq       ....     5
   Bias factor          DIISBfac        ....   1.050
   Max. coefficient     DIISMaxC        ....  10.000
 MO-DIIS                CNVKDIIS        .... off
 Trust-Rad. Augm. Hess. CNVTRAH         .... off
 SOSCF                  CNVSOSCF        .... on
   Start iteration      SOSCFMaxIt      ....   150
   Startup grad/error   SOSCFStart      ....  0.003300
   Hessian update       SOSCFHessUp     .... L-BFGS
 Level Shifting         CNVShift        .... on
   Level shift para.    LevelShift      ....    0.2500
   Turn off err/grad.   ShiftErr        ....    0.0010
 Zerner damping         CNVZerner       .... off
 Static damping         CNVDamp         .... on
   Fraction old density DampFac         ....    0.7000
   Max. Damping (<1)    DampMax         ....    0.9800
   Min. Damping (>=0)   DampMin         ....    0.0000
   Turn off err/grad.   DampErr         ....    0.1000

SCF Procedure:
 Maximum # iterations   MaxIter         ....   800
 SCF integral mode      SCFMode         .... Direct
   Integral package                     .... SHARK and LIBINT hybrid scheme
 Reset frequency        DirectResetFreq ....    20
 Integral Threshold     Thresh          ....  2.500e-11 Eh
 Primitive CutOff       TCut            ....  2.500e-12 Eh

Convergence Tolerance:
 Convergence Check Mode ConvCheckMode   .... Total+1el-Energy
 Convergence forced     ConvForced      .... 0
 Energy Change          TolE            ....  1.000e-08 Eh
 1-El. energy change                    ....  1.000e-05 Eh
 Orbital Gradient       TolG            ....  1.000e-05
 Orbital Rotation angle TolX            ....  1.000e-05
 DIIS Error             TolErr          ....  5.000e-07

--------------------------------
INITIAL GUESS: MINIMAL BASIS EHT
--------------------------------
The minimal basis has 180 functions
EHT matrix was diagonalized
Basis set overlap was calculated now projecting the orbitals
Using GuessMode=FMatrix for the initial guess
C*T matrix was formed
Effective Fockian was calculated
Effective Fockian was diagonalized
Initial density was built
                      ------------------
                      INITIAL GUESS DONE
                      ------------------
             **** ENERGY FILE WAS UPDATED (m1_00_Enzalutamide-GitHubGFN2-B97-3C-TZ_0_neg-B97-3C-TZ.en.tmp) ****
Finished Guess after   0.5 sec
Maximum memory used throughout the entire GUESS-calculation: 63.7 MB


           ************************************************************
           *        Program running with 16 parallel MPI-processes    *
           *              working on a common directory               *
           ************************************************************

-------------------------------------------------------------------------------------------
                                      ORCA LEAN-SCF
                              memory conserving SCF solver
-------------------------------------------------------------------------------------------

----------------------------------------D-I-I-S--------------------------------------------
Iteration    Energy (Eh)           Delta-E    RMSDP     MaxDP     DIISErr   Damp  Time(sec)
-------------------------------------------------------------------------------------------
               ***  Starting incremental Fock matrix formation  ***
    1    -1969.4756578326523595     0.00e+00  6.34e-03  4.87e-01  8.34e-01  0.700   1.4
Warning: op=0 Small HOMO/LUMO gap (  -0.476) - skipping pre-diagonalization
         LevelShift set to 0.576 Eh
         Will do a full diagonalization
    2    -1971.7428503057299167    -2.27e+00  4.33e-03  2.29e-01  5.56e-01  0.700   1.5
    3    -1972.6370775271625462    -8.94e-01  3.26e-03  2.70e-01  3.70e-01  0.700   1.3
    4    -1973.6528248520153284    -1.02e+00  2.51e-03  2.68e-01  2.48e-01  0.700   1.3
                               ***Turning on AO-DIIS***
    5    -1974.3130251438306004    -6.60e-01  2.00e-03  2.03e-01  1.68e-01  0.700   1.3
    6    -1974.7735830061465094    -4.61e-01  1.44e-03  1.05e-01  1.19e-01  0.700   1.3
    7    -1975.1032724317537941    -3.30e-01  1.05e-03  6.22e-02  8.41e-02  0.700   1.3
    8    -1975.3383048463647356    -2.35e-01  2.62e-03  1.56e-01  5.83e-02  0.000   1.3
    9    -1975.8814604045146552    -5.43e-01  4.80e-04  6.93e-02  3.16e-02  0.000   1.3
   10    -1975.8869581717444817    -5.50e-03  2.00e-04  1.63e-02  5.11e-03  0.000   1.3
   11    -1975.8876656593947700    -7.07e-04  1.11e-04  7.21e-03  4.77e-03  0.000   1.3
                              *** Initializing SOSCF ***
---------------------------------------S-O-S-C-F--------------------------------------
Iteration    Energy (Eh)           Delta-E    RMSDP     MaxDP     MaxGrad    Time(sec)
--------------------------------------------------------------------------------------
   12    -1975.8880016243583668    -3.36e-04  7.89e-05  3.85e-03  2.22e-03     1.4
               *** Restarting incremental Fock matrix formation ***
   13    -1975.8881665246099146    -1.65e-04  1.89e-04  8.25e-03  2.86e-03     1.4
   14    -1975.8882788330183757    -1.12e-04  1.56e-04  1.62e-02  1.80e-03     1.2
   15    -1975.8882847131299059    -5.88e-06  1.19e-04  1.20e-02  1.29e-03     1.2
   16    -1975.8883653492221129    -8.06e-05  7.27e-05  4.57e-03  9.36e-04     1.2
   17    -1975.8883438812026725     2.15e-05  6.45e-05  3.99e-03  1.47e-03     1.2
   18    -1975.8883864575618645    -4.26e-05  3.43e-05  2.05e-03  6.20e-04     1.2
   19    -1975.8883711036132809     1.54e-05  2.32e-05  8.38e-04  1.04e-03     1.2
   20    -1975.8883909671567380    -1.99e-05  2.35e-05  1.99e-03  1.80e-04     1.2
   21    -1975.8883869827604940     3.98e-06  1.35e-05  1.27e-03  4.85e-04     1.2
   22    -1975.8883916133336243    -4.63e-06  1.21e-05  1.15e-03  2.29e-05     1.2
   23    -1975.8883913804975236     2.33e-07  6.51e-06  4.11e-04  6.11e-05     1.2
   24    -1975.8883916543991290    -2.74e-07  1.46e-05  1.05e-03  1.23e-05     1.2
   25    -1975.8883916102058720     4.42e-08  1.12e-05  1.27e-03  2.25e-05     1.2
   26    -1975.8883916813647375    -7.12e-08  2.83e-05  2.85e-03  6.85e-06     1.2
   27    -1975.8883916681779738     1.32e-08  4.34e-06  3.97e-04  1.56e-05     1.2
   28    -1975.8883916886597945    -2.05e-08  7.51e-06  9.37e-04  1.89e-06     1.1
                  *** Gradient check signals convergence ***

               *****************************************************
               *                     SUCCESS                       *
               *           SCF CONVERGED AFTER  28 CYCLES          *
               *****************************************************

             **** ENERGY FILE WAS UPDATED (m1_00_Enzalutamide-GitHubGFN2-B97-3C-TZ_0_neg-B97-3C-TZ.en.tmp) ****

----------------
TOTAL SCF ENERGY
----------------

Total Energy       :      -1975.88839168865979 Eh          -53766.65658 eV

Components:
Nuclear Repulsion  :       3317.54737362669130 Eh           90275.05353 eV
Electronic Energy  :      -5293.43576531535109 Eh         -144041.71011 eV
One Electron Energy:      -9309.46260799360789 Eh         -253323.35627 eV
Two Electron Energy:       4016.02684267825725 Eh          109281.64616 eV

Virial components:
Potential Energy   :      -3945.48064833988337 Eh         -107361.98662 eV
Kinetic Energy     :       1969.59225665122335 Eh           53595.33004 eV
Virial Ratio       :          2.00319666926806

DFT components:
N(Alpha)           :      119.000003156561 electrons
N(Beta)            :      119.000003156561 electrons
N(Total)           :      238.000006313122 electrons
E(XC)              :     -231.121292870519 Eh       

---------------
SCF CONVERGENCE
---------------

  Last Energy change         ...    2.0482e-08  Tolerance :   1.0000e-08
  Last MAX-Density change    ...    9.3675e-04  Tolerance :   1.0000e-07
  Last RMS-Density change    ...    7.5053e-06  Tolerance :   5.0000e-09
  Last DIIS Error            ...    2.2248e-03  Tolerance :   5.0000e-07
  Last Orbital Gradient      ...    1.8863e-06  Tolerance :   1.0000e-05
  Last Orbital Rotation      ...    1.2355e-05  Tolerance :   1.0000e-05


----------------
ORBITAL ENERGIES
----------------

  NO   OCC          E(Eh)            E(eV) 
   0   2.0000     -88.004305     -2394.7189 
   1   2.0000     -24.289830      -660.9599 
   2   2.0000     -24.286539      -660.8703 
   3   2.0000     -24.281177      -660.7244 
   4   2.0000     -24.281070      -660.7215 
   5   2.0000     -18.763012      -510.5675 
   6   2.0000     -18.718360      -509.3525 
   7   2.0000     -14.085707      -383.2916 
   8   2.0000     -14.069932      -382.8623 
   9   2.0000     -14.029973      -381.7750 
  10   2.0000     -13.997785      -380.8991 
  11   2.0000     -10.155484      -276.3448 
  12   2.0000     -10.038144      -273.1518 
  13   2.0000     -10.033321      -273.0205 
  14   2.0000     -10.013076      -272.4696 
  15   2.0000     -10.004179      -272.2275 
  16   2.0000      -9.990404      -271.8527 
  17   2.0000      -9.981873      -271.6206 
  18   2.0000      -9.974636      -271.4236 
  19   2.0000      -9.969131      -271.2739 
  20   2.0000      -9.959397      -271.0090 
  21   2.0000      -9.942778      -270.5567 
  22   2.0000      -9.942686      -270.5542 
  23   2.0000      -9.941113      -270.5114 
  24   2.0000      -9.940615      -270.4979 
  25   2.0000      -9.940027      -270.4819 
  26   2.0000      -9.939205      -270.4595 
  27   2.0000      -9.933431      -270.3024 
  28   2.0000      -9.927731      -270.1473 
  29   2.0000      -9.927243      -270.1340 
  30   2.0000      -9.922413      -270.0026 
  31   2.0000      -9.921048      -269.9654 
  32   2.0000      -7.696733      -209.4387 
  33   2.0000      -5.727879      -155.8635 
  34   2.0000      -5.722428      -155.7152 
  35   2.0000      -5.716971      -155.5667 
  36   2.0000      -1.226011       -33.3615 
  37   2.0000      -1.166293       -31.7364 
  38   2.0000      -1.142204       -31.0810 
  39   2.0000      -1.138591       -30.9826 
  40   2.0000      -1.021188       -27.7879 
  41   2.0000      -0.974047       -26.5052 
  42   2.0000      -0.968208       -26.3463 
  43   2.0000      -0.907905       -24.7054 
  44   2.0000      -0.865435       -23.5497 
  45   2.0000      -0.854744       -23.2588 
  46   2.0000      -0.835732       -22.7414 
  47   2.0000      -0.825617       -22.4662 
  48   2.0000      -0.783664       -21.3246 
  49   2.0000      -0.762281       -20.7427 
  50   2.0000      -0.749888       -20.4055 
  51   2.0000      -0.731191       -19.8967 
  52   2.0000      -0.722650       -19.6643 
  53   2.0000      -0.704850       -19.1799 
  54   2.0000      -0.674913       -18.3653 
  55   2.0000      -0.672813       -18.3082 
  56   2.0000      -0.667699       -18.1690 
  57   2.0000      -0.651768       -17.7355 
  58   2.0000      -0.613971       -16.7070 
  59   2.0000      -0.604404       -16.4467 
  60   2.0000      -0.603019       -16.4090 
  61   2.0000      -0.600083       -16.3291 
  62   2.0000      -0.571936       -15.5632 
  63   2.0000      -0.570969       -15.5369 
  64   2.0000      -0.556497       -15.1430 
  65   2.0000      -0.552393       -15.0314 
  66   2.0000      -0.545749       -14.8506 
  67   2.0000      -0.544534       -14.8175 
  68   2.0000      -0.529647       -14.4124 
  69   2.0000      -0.517900       -14.0928 
  70   2.0000      -0.505927       -13.7670 
  71   2.0000      -0.493511       -13.4291 
  72   2.0000      -0.485423       -13.2090 
  73   2.0000      -0.478665       -13.0251 
  74   2.0000      -0.472098       -12.8464 
  75   2.0000      -0.453350       -12.3363 
  76   2.0000      -0.450255       -12.2521 
  77   2.0000      -0.447760       -12.1842 
  78   2.0000      -0.438213       -11.9244 
  79   2.0000      -0.434618       -11.8266 
  80   2.0000      -0.424161       -11.5420 
  81   2.0000      -0.420237       -11.4352 
  82   2.0000      -0.419610       -11.4182 
  83   2.0000      -0.417071       -11.3491 
  84   2.0000      -0.416691       -11.3387 
  85   2.0000      -0.407441       -11.0870 
  86   2.0000      -0.402193       -10.9442 
  87   2.0000      -0.401841       -10.9346 
  88   2.0000      -0.394702       -10.7404 
  89   2.0000      -0.391072       -10.6416 
  90   2.0000      -0.389022       -10.5858 
  91   2.0000      -0.384548       -10.4641 
  92   2.0000      -0.379826       -10.3356 
  93   2.0000      -0.379145       -10.3171 
  94   2.0000      -0.374272       -10.1845 
  95   2.0000      -0.372186       -10.1277 
  96   2.0000      -0.370618       -10.0850 
  97   2.0000      -0.367197        -9.9919 
  98   2.0000      -0.360882        -9.8201 
  99   2.0000      -0.360740        -9.8162 
 100   2.0000      -0.358547        -9.7566 
 101   2.0000      -0.356825        -9.7097 
 102   2.0000      -0.352648        -9.5961 
 103   2.0000      -0.349926        -9.5220 
 104   2.0000      -0.343271        -9.3409 
 105   2.0000      -0.340537        -9.2665 
 106   2.0000      -0.332285        -9.0419 
 107   2.0000      -0.322584        -8.7780 
 108   2.0000      -0.308673        -8.3994 
 109   2.0000      -0.284930        -7.7534 
 110   2.0000      -0.277810        -7.5596 
 111   2.0000      -0.266377        -7.2485 
 112   2.0000      -0.260306        -7.0833 
 113   2.0000      -0.255798        -6.9606 
 114   2.0000      -0.248664        -6.7665 
 115   2.0000      -0.234929        -6.3927 
 116   2.0000      -0.229343        -6.2407 
 117   2.0000      -0.226001        -6.1498 
 118   2.0000      -0.206974        -5.6320 
 119   0.0000      -0.109914        -2.9909 
 120   0.0000      -0.097444        -2.6516 
 121   0.0000      -0.086278        -2.3477 
 122   0.0000      -0.081308        -2.2125 
 123   0.0000      -0.064264        -1.7487 
 124   0.0000      -0.037458        -1.0193 
 125   0.0000      -0.015825        -0.4306 
 126   0.0000      -0.004121        -0.1121 
 127   0.0000      -0.000608        -0.0165 
 128   0.0000       0.012177         0.3313 
 129   0.0000       0.019075         0.5191 
*Only the first 10 virtual orbitals were printed.

                    ********************************
                    * MULLIKEN POPULATION ANALYSIS *
                    ********************************

-----------------------
MULLIKEN ATOMIC CHARGES
-----------------------
   0 S :   -0.187461
   1 C :   -0.056882
   2 N :   -0.029955
   3 C :   -0.034751
   4 C :   -0.162958
   5 C :    0.414541
   6 C :   -0.040183
   7 C :   -0.238823
   8 C :   -0.119051
   9 H :    0.207511
  10 H :    0.220597
  11 C :    0.214466
  12 O :   -0.443282
  13 N :   -0.381590
  14 H :    0.359749
  15 C :   -0.411380
  16 H :    0.212861
  17 H :    0.174568
  18 H :    0.168154
  19 F :   -0.267570
  20 H :    0.215703
  21 C :   -0.042399
  22 C :    0.326299
  23 O :   -0.361413
  24 N :   -0.071565
  25 C :    0.161161
  26 C :   -0.176800
  27 C :   -0.141252
  28 C :    0.035649
  29 C :   -0.085379
  30 C :   -0.156635
  31 H :    0.243025
  32 C :    0.565793
  33 F :   -0.201379
  34 F :   -0.216118
  35 F :   -0.202419
  36 C :   -0.062077
  37 N :   -0.092414
  38 H :    0.231737
  39 H :    0.234787
  40 C :   -0.476643
  41 H :    0.207139
  42 H :    0.178814
  43 H :    0.206477
  44 C :   -0.515895
  45 H :    0.208519
  46 H :    0.186007
  47 H :    0.202717
Sum of atomic charges:   -0.0000000

--------------------------------
MULLIKEN REDUCED ORBITAL CHARGES
--------------------------------
  0 S s       :     5.881995  s :     5.881995
      pz      :     3.453656  p :    10.246499
      px      :     3.770035
      py      :     3.022808
      dz2     :     0.008771  d :     0.058968
      dxz     :     0.000667
      dyz     :     0.015205
      dx2y2   :     0.025955
      dxy     :     0.008370

  1 C s       :     3.148946  s :     3.148946
      pz      :     0.960687  p :     2.824387
      px      :     0.958038
      py      :     0.905662
      dz2     :     0.005289  d :     0.083548
      dxz     :     0.013530
      dyz     :     0.015442
      dx2y2   :     0.016026
      dxy     :     0.033261

  2 N s       :     3.215795  s :     3.215795
      pz      :     1.574593  p :     3.762383
      px      :     1.070070
      py      :     1.117720
      dz2     :     0.004339  d :     0.051777
      dxz     :     0.007507
      dyz     :     0.006318
      dx2y2   :     0.015075
      dxy     :     0.018539

  3 C s       :     3.215800  s :     3.215800
      pz      :     0.836021  p :     2.756222
      px      :     0.896390
      py      :     1.023810
      dz2     :     0.013907  d :     0.062729
      dxz     :     0.019552
      dyz     :     0.008080
      dx2y2   :     0.011553
      dxy     :     0.009637

  4 C s       :     3.033119  s :     3.033119
      pz      :     1.029748  p :     3.090486
      px      :     1.033174
      py      :     1.027564
      dz2     :     0.008217  d :     0.039353
      dxz     :     0.011239
      dyz     :     0.005351
      dx2y2   :     0.007629
      dxy     :     0.006916

  5 C s       :     3.065480  s :     3.065480
      pz      :     0.707477  p :     2.444189
      px      :     0.827743
      py      :     0.908969
      dz2     :     0.019076  d :     0.075790
      dxz     :     0.020199
      dyz     :     0.012729
      dx2y2   :     0.011944
      dxy     :     0.011842

  6 C s       :     3.293630  s :     3.293630
      pz      :     0.928020  p :     2.701839
      px      :     0.778698
      py      :     0.995121
      dz2     :     0.009859  d :     0.044713
      dxz     :     0.013061
      dyz     :     0.006282
      dx2y2   :     0.008061
      dxy     :     0.007450

  7 C s       :     3.232505  s :     3.232505
      pz      :     0.997990  p :     2.964878
      px      :     1.044409
      py      :     0.922480
      dz2     :     0.007660  d :     0.041439
      dxz     :     0.013697
      dyz     :     0.005234
      dx2y2   :     0.007604
      dxy     :     0.007245

  8 C s       :     3.054595  s :     3.054595
      pz      :     1.010651  p :     3.023253
      px      :     0.996168
      py      :     1.016434
      dz2     :     0.007817  d :     0.041204
      dxz     :     0.013213
      dyz     :     0.005801
      dx2y2   :     0.006728
      dxy     :     0.007645

  9 H s       :     0.792489  s :     0.792489

 10 H s       :     0.779403  s :     0.779403

 11 C s       :     3.106831  s :     3.106831
      pz      :     0.804575  p :     2.567619
      px      :     0.912357
      py      :     0.850687
      dz2     :     0.030473  d :     0.111084
      dxz     :     0.019828
      dyz     :     0.019148
      dx2y2   :     0.026756
      dxy     :     0.014879

 12 O s       :     3.850522  s :     3.850522
      pz      :     1.435551  p :     4.559489
      px      :     1.612552
      py      :     1.511386
      dz2     :     0.003296  d :     0.033271
      dxz     :     0.009771
      dyz     :     0.008142
      dx2y2   :     0.003995
      dxy     :     0.008067

 13 N s       :     3.359918  s :     3.359918
      pz      :     1.348581  p :     3.981126
      px      :     1.173545
      py      :     1.459000
      dz2     :     0.005266  d :     0.040546
      dxz     :     0.013044
      dyz     :     0.006169
[...]
100:   1286.68   0.055396  279.95  0.013435  ( 0.101936 -0.054432 -0.009031)
101:   1302.05   0.012775   64.56  0.003062  (-0.039732  0.037546  0.008576)
102:   1308.34   0.030017  151.69  0.007160  (-0.047169  0.044161 -0.054631)
103:   1347.43   0.010266   51.88  0.002378  ( 0.039963 -0.009897  0.026126)
104:   1351.43   0.000869    4.39  0.000201  ( 0.010373 -0.004134  0.008718)
105:   1379.07   0.014703   74.30  0.003327  ( 0.036589  0.044005 -0.007199)
106:   1393.95   0.002361   11.93  0.000529  ( 0.004920  0.007556  0.021149)
107:   1414.35   0.002222   11.23  0.000490  ( 0.005727 -0.020865  0.004716)
108:   1428.16   0.133822  676.28  0.029241  ( 0.125646  0.114625 -0.017759)
109:   1440.75   0.015973   80.72  0.003460  (-0.042245  0.003560  0.040772)
110:   1451.50   0.004734   23.92  0.001018  ( 0.031343 -0.005856  0.001021)
111:   1453.83   0.001762    8.90  0.000378  ( 0.005182 -0.014341 -0.012067)
112:   1482.91   0.001957    9.89  0.000412  (-0.003412 -0.016171  0.011778)
113:   1486.41   0.000653    3.30  0.000137  (-0.000714  0.001860  0.011537)
114:   1488.59   0.000045    0.23  0.000009  ( 0.002987  0.000674  0.000104)
115:   1506.79   0.004518   22.83  0.000936  (-0.022988 -0.016122  0.012139)
116:   1510.40   0.010525   53.19  0.002174  (-0.042424  0.016072  0.010785)
117:   1514.34   0.002737   13.83  0.000564  ( 0.021074 -0.009776 -0.004930)
118:   1519.99   0.015434   78.00  0.003169  ( 0.047975 -0.004243 -0.029138)
119:   1524.17   0.008597   43.45  0.001760  ( 0.029094  0.030226 -0.000482)
120:   1555.02   0.060830  307.41  0.012207  (-0.091928  0.047674  0.038520)
121:   1591.06   0.002291   11.58  0.000449  ( 0.001486 -0.010831 -0.018163)
122:   1593.39   0.001635    8.26  0.000320  ( 0.016176  0.007226  0.002523)
123:   1639.39   0.009087   45.92  0.001730  ( 0.036681  0.018085 -0.007555)
124:   1643.72   0.016947   85.64  0.003217  (-0.055631  0.009701 -0.005338)
125:   1705.96   0.046186  233.41  0.008449  (-0.033776 -0.046106 -0.071986)
126:   1787.68   0.055405  279.99  0.009672  (-0.055273  0.080483 -0.011791)
127:   2283.53   0.003526   17.82  0.000482  (-0.020614 -0.007115  0.002501)
128:   3010.61   0.011516   58.20  0.001194  ( 0.032644 -0.009917 -0.005456)
129:   3016.82   0.002587   13.07  0.000268  (-0.002584  0.002028  0.016026)
130:   3020.07   0.002171   10.97  0.000224  (-0.011180 -0.009711 -0.002232)
131:   3065.46   0.004543   22.96  0.000462  (-0.003784 -0.017041  0.012561)
132:   3094.24   0.002594   13.11  0.000262  ( 0.009470  0.009691  0.008831)
133:   3099.21   0.004166   21.06  0.000420  ( 0.013784  0.010815 -0.010609)
134:   3105.08   0.000156    0.79  0.000016  ( 0.003815  0.000844  0.000673)
135:   3109.92   0.004205   21.25  0.000422  (-0.003207  0.012505  0.015977)
136:   3110.54   0.003949   19.95  0.000396  (-0.014638  0.013321 -0.002098)
137:   3167.28   0.000165    0.84  0.000016  ( 0.002396  0.001568  0.002843)
138:   3171.98   0.000469    2.37  0.000046  (-0.003967 -0.003329  0.004398)
139:   3177.02   0.001548    7.82  0.000152  (-0.009238  0.005154  0.006337)
140:   3183.33   0.000242    1.22  0.000024  (-0.004505  0.001808 -0.000434)
141:   3188.63   0.000308    1.56  0.000030  (-0.004803 -0.001030 -0.002450)
142:   3203.33   0.000405    2.05  0.000039  ( 0.005691 -0.000868  0.002517)
143:   3611.90   0.007944   40.15  0.000686  (-0.015950 -0.009337 -0.018568)

* The epsilon (eps) is given for a Dirac delta lineshape.
** The dipole moment derivative (T) already includes vibrational overlap.

The first frequency considered to be a vibration is 6
The total number of vibrations considered is 138


--------------------------
THERMOCHEMISTRY AT 298.15K
--------------------------

Temperature         ...   298.15 K
Pressure            ...     1.00 atm
Total Mass          ...   464.44 AMU
Quasi RRHO          ...     True
Cut-Off Frequency   ...     1.00 cm^-1

Throughout the following assumptions are being made:
  (1) The electronic state is orbitally nondegenerate
  (2) There are no thermally accessible electronically excited states
  (3) Hindered rotations indicated by low frequency modes are not
      treated as such but are treated as vibrations and this may
      cause some error
  (4) All equations used are the standard statistical mechanics
      equations for an ideal gas
  (5) All vibrations are strictly harmonic

freq.      13.57  E(vib)   ...       0.57 
freq.      20.22  E(vib)   ...       0.56 
freq.      20.80  E(vib)   ...       0.56 
freq.      28.03  E(vib)   ...       0.55 
freq.      37.06  E(vib)   ...       0.54 
freq.      37.66  E(vib)   ...       0.54 
freq.      49.53  E(vib)   ...       0.52 
freq.      53.43  E(vib)   ...       0.52 
freq.      72.53  E(vib)   ...       0.49 
freq.      76.54  E(vib)   ...       0.49 
freq.      92.25  E(vib)   ...       0.47 
freq.     100.87  E(vib)   ...       0.46 
freq.     119.42  E(vib)   ...       0.44 
freq.     120.86  E(vib)   ...       0.44 
freq.     134.82  E(vib)   ...       0.42 
freq.     155.54  E(vib)   ...       0.40 
freq.     165.99  E(vib)   ...       0.39 
freq.     171.37  E(vib)   ...       0.38 
freq.     200.97  E(vib)   ...       0.35 
freq.     207.47  E(vib)   ...       0.34 
freq.     227.67  E(vib)   ...       0.33 
freq.     235.56  E(vib)   ...       0.32 
freq.     250.54  E(vib)   ...       0.30 
freq.     267.41  E(vib)   ...       0.29 
freq.     276.90  E(vib)   ...       0.28 
freq.     283.55  E(vib)   ...       0.28 
freq.     295.23  E(vib)   ...       0.27 
freq.     297.64  E(vib)   ...       0.27 
freq.     309.49  E(vib)   ...       0.26 
freq.     311.76  E(vib)   ...       0.25 
freq.     322.07  E(vib)   ...       0.25 
freq.     322.40  E(vib)   ...       0.25 
freq.     365.15  E(vib)   ...       0.22 
freq.     367.19  E(vib)   ...       0.22 
freq.     387.46  E(vib)   ...       0.20 
freq.     414.01  E(vib)   ...       0.19 
freq.     428.61  E(vib)   ...       0.18 
freq.     436.58  E(vib)   ...       0.17 
freq.     449.60  E(vib)   ...       0.17 
freq.     462.97  E(vib)   ...       0.16 
freq.     474.79  E(vib)   ...       0.15 
freq.     490.52  E(vib)   ...       0.15 
freq.     503.54  E(vib)   ...       0.14 
freq.     527.83  E(vib)   ...       0.13 
freq.     551.64  E(vib)   ...       0.12 
freq.     554.13  E(vib)   ...       0.12 
freq.     576.40  E(vib)   ...       0.11 
freq.     577.99  E(vib)   ...       0.11 
freq.     591.05  E(vib)   ...       0.10 
freq.     613.64  E(vib)   ...       0.10 
freq.     621.52  E(vib)   ...       0.09 
freq.     638.59  E(vib)   ...       0.09 
freq.     641.33  E(vib)   ...       0.09 
freq.     667.73  E(vib)   ...       0.08 
freq.     678.75  E(vib)   ...       0.08 
freq.     706.66  E(vib)   ...       0.07 
freq.     716.06  E(vib)   ...       0.07 
freq.     737.77  E(vib)   ...       0.06 
freq.     743.91  E(vib)   ...       0.06 
freq.     747.59  E(vib)   ...       0.06 
freq.     748.72  E(vib)   ...       0.06 
freq.     809.78  E(vib)   ...       0.05 
freq.     819.12  E(vib)   ...       0.05 
freq.     831.42  E(vib)   ...       0.04 
freq.     833.79  E(vib)   ...       0.04 
freq.     843.74  E(vib)   ...       0.04 
freq.     868.65  E(vib)   ...       0.04 
freq.     886.33  E(vib)   ...       0.04 
freq.     919.78  E(vib)   ...       0.03 
freq.     925.90  E(vib)   ...       0.03 
freq.     950.94  E(vib)   ...       0.03 
freq.     960.47  E(vib)   ...       0.03 
freq.     966.88  E(vib)   ...       0.03 
freq.    1014.73  E(vib)   ...       0.02 
freq.    1017.48  E(vib)   ...       0.02 
freq.    1023.26  E(vib)   ...       0.02 
freq.    1045.11  E(vib)   ...       0.02 
freq.    1062.50  E(vib)   ...       0.02 
freq.    1115.58  E(vib)   ...       0.01 
freq.    1116.46  E(vib)   ...       0.01 
freq.    1131.11  E(vib)   ...       0.01 
freq.    1134.43  E(vib)   ...       0.01 
freq.    1142.00  E(vib)   ...       0.01 
freq.    1161.14  E(vib)   ...       0.01 
freq.    1165.48  E(vib)   ...       0.01 
freq.    1175.00  E(vib)   ...       0.01 
freq.    1179.13  E(vib)   ...       0.01 
freq.    1184.97  E(vib)   ...       0.01 
freq.    1191.17  E(vib)   ...       0.01 
freq.    1221.12  E(vib)   ...       0.01 
freq.    1225.56  E(vib)   ...       0.01 
freq.    1259.22  E(vib)   ...       0.01 
freq.    1265.57  E(vib)   ...       0.01 
freq.    1277.66  E(vib)   ...       0.01 
freq.    1286.68  E(vib)   ...       0.01 
freq.    1302.05  E(vib)   ...       0.01 
freq.    1308.34  E(vib)   ...       0.01 
freq.    1347.43  E(vib)   ...       0.01 
freq.    1351.43  E(vib)   ...       0.01 
freq.    1379.07  E(vib)   ...       0.01 
freq.    1393.95  E(vib)   ...       0.00 
freq.    1414.35  E(vib)   ...       0.00 
freq.    1428.16  E(vib)   ...       0.00 
freq.    1440.75  E(vib)   ...       0.00 
freq.    1451.50  E(vib)   ...       0.00 
freq.    1453.83  E(vib)   ...       0.00 
freq.    1482.91  E(vib)   ...       0.00 
freq.    1486.41  E(vib)   ...       0.00 
freq.    1488.59  E(vib)   ...       0.00 
freq.    1506.79  E(vib)   ...       0.00 
freq.    1510.40  E(vib)   ...       0.00 
freq.    1514.34  E(vib)   ...       0.00 
freq.    1519.99  E(vib)   ...       0.00 
freq.    1524.17  E(vib)   ...       0.00 
freq.    1555.02  E(vib)   ...       0.00 
freq.    1591.06  E(vib)   ...       0.00 
freq.    1593.39  E(vib)   ...       0.00 
freq.    1639.39  E(vib)   ...       0.00 
freq.    1643.72  E(vib)   ...       0.00 
freq.    1705.96  E(vib)   ...       0.00 
freq.    1787.68  E(vib)   ...       0.00 
freq.    2283.53  E(vib)   ...       0.00 
freq.    3010.61  E(vib)   ...       0.00 
freq.    3016.82  E(vib)   ...       0.00 
freq.    3020.07  E(vib)   ...       0.00 
freq.    3065.46  E(vib)   ...       0.00 
freq.    3094.24  E(vib)   ...       0.00 
freq.    3099.21  E(vib)   ...       0.00 
freq.    3105.08  E(vib)   ...       0.00 
freq.    3109.92  E(vib)   ...       0.00 
freq.    3110.54  E(vib)   ...       0.00 
freq.    3167.28  E(vib)   ...       0.00 
freq.    3171.98  E(vib)   ...       0.00 
freq.    3177.02  E(vib)   ...       0.00 
freq.    3183.33  E(vib)   ...       0.00 
freq.    3188.63  E(vib)   ...       0.00 
freq.    3203.33  E(vib)   ...       0.00 
freq.    3611.90  E(vib)   ...       0.00 

------------
INNER ENERGY
------------

The inner energy is: U= E(el) + E(ZPE) + E(vib) + E(rot) + E(trans)
    E(el)   - is the total energy from the electronic structure calculation
              = E(kin-el) + E(nuc-el) + E(el-el) + E(nuc-nuc)
    E(ZPE)  - the the zero temperature vibrational energy from the frequency calculation
    E(vib)  - the the finite temperature correction to E(ZPE) due to population
              of excited vibrational states
    E(rot)  - is the rotational thermal energy
    E(trans)- is the translational thermal energy

Summary of contributions to the inner energy U:
Electronic energy                ...  -1976.20531113 Eh
Zero point energy                ...      0.33979487 Eh     213.22 kcal/mol
Thermal vibrational correction   ...      0.02728225 Eh      17.12 kcal/mol
Thermal rotational correction    ...      0.00141627 Eh       0.89 kcal/mol
Thermal translational correction ...      0.00141627 Eh       0.89 kcal/mol
-----------------------------------------------------------------------
Total thermal energy                  -1975.83540147 Eh


Summary of corrections to the electronic energy:
(perhaps to be used in another calculation)
Total thermal correction                  0.03011479 Eh      18.90 kcal/mol
Non-thermal (ZPE) correction              0.33979487 Eh     213.22 kcal/mol
-----------------------------------------------------------------------
Total correction                          0.36990966 Eh     232.12 kcal/mol


--------
ENTHALPY
--------

The enthalpy is H = U + kB*T
                kB is Boltzmann's constant
Total thermal energy              ...  -1975.83540147 Eh 
Thermal Enthalpy correction       ...      0.00094421 Eh       0.59 kcal/mol
-----------------------------------------------------------------------
Total Enthalpy                    ...  -1975.83445726 Eh


Note: Only C1 symmetry has been detected, increase convergence thresholds 
      if your molecule has a higher symmetry. Symmetry factor of 1.0 is   
      used for the rotational entropy correction. 
 

Note: Rotational entropy computed according to Herzberg 
Infrared and Raman Spectra, Chapter V,1, Van Nostrand Reinhold, 1945 
Point Group:  C1, Symmetry Number:   1  
Rotational constants in cm-1:     0.011054     0.001636     0.001594 

Vibrational entropy computed according to the QRRHO of S. Grimme
Chem.Eur.J. 2012 18 9955 using a reference frequency of 100.0 cm-1


-------
ENTROPY
-------

The entropy contributions are T*S = T*(S(el)+S(vib)+S(rot)+S(trans))
     S(el)   - electronic entropy
     S(vib)  - vibrational entropy
     S(rot)  - rotational entropy
     S(trans)- translational entropy
The entropies will be listed as multiplied by the temperature to get
units of energy

Electronic entropy                ...      0.00000000 Eh      0.00 kcal/mol
Vibrational entropy               ...      0.04960328 Eh     31.13 kcal/mol
Rotational entropy                ...      0.01770711 Eh     11.11 kcal/mol
Translational entropy             ...      0.02104615 Eh     13.21 kcal/mol
-----------------------------------------------------------------------
Final entropy term                ...      0.08835654 Eh     55.44 kcal/mol

In case the symmetry of your molecule has not been determined correctly
or in case you have a reason to use a different symmetry number we print 
out the resulting rotational entropy values for sn=1,12:

 non-linear molecules -----------------------------------
|  sn= 1 | S(rot)=       0.01770711 Eh     11.11 kcal/mol|
|  sn= 2 | S(rot)=       0.01705265 Eh     10.70 kcal/mol|
|  sn= 3 | S(rot)=       0.01666982 Eh     10.46 kcal/mol|
|  sn= 4 | S(rot)=       0.01639819 Eh     10.29 kcal/mol|
|  sn= 5 | S(rot)=       0.01618751 Eh     10.16 kcal/mol|
|  sn= 6 | S(rot)=       0.01601536 Eh     10.05 kcal/mol|
|  sn= 7 | S(rot)=       0.01586982 Eh      9.96 kcal/mol|
|  sn= 8 | S(rot)=       0.01574374 Eh      9.88 kcal/mol|
|  sn= 9 | S(rot)=       0.01563253 Eh      9.81 kcal/mol|
|  sn=10 | S(rot)=       0.01553305 Eh      9.75 kcal/mol|
|  sn=11 | S(rot)=       0.01544306 Eh      9.69 kcal/mol|
|  sn=12 | S(rot)=       0.01536091 Eh      9.64 kcal/mol|
 linear molecules ---------------------------------------
|  Dinfh | S(rot)=       0.01140767 Eh      7.16 kcal/mol|
|  Cinfv | S(rot)=       0.01206213 Eh      7.57 kcal/mol|
 --------------------------------------------------------


-------------------
GIBBS FREE ENERGY
-------------------

The Gibbs free energy is G = H - T*S

Total enthalpy                    ...  -1975.83445726 Eh 
Total entropy correction          ...     -0.08835654 Eh    -55.44 kcal/mol
-----------------------------------------------------------------------
Final Gibbs free energy         ...  -1975.92281380 Eh

For completeness - the Gibbs free energy minus the electronic energy
G-E(el)                           ...      0.28249733 Eh    177.27 kcal/mol


Maximum memory used throughout the entire PROP-calculation: 167.5 MB

--------------------------------
SUGGESTED CITATIONS FOR THIS RUN
--------------------------------

Below you find a list of papers that are relevant to this ORCA run
We neither can nor want to force you to cite these papers, but we appreciate if you do
You receive ORCA, which is the product of decades of hard work by many enthusiastic individuals, for free
The only thing we kindly ask in return is that you cite our papers,
We deeply appreciate it, if you show your appreciation for ORCA by not just citing the generic ORCA reference.

Please note that relegating all ORCA citations to the supporting information does *not* help us.
SI sections are not indexed - citations you put there will not count into any citation statistics
But we need these citations in order to attract the funding resources that allow us to do what we are doing

Therefore, if you are a happy ORCA user, please consider citing a few of the papers listed below in the main body of your paper

In addition to the list printed below, the program has created the file m1_00_Enzalutamide-GitHubGFN2-B97-3C-TZ_0_neg-B97-3C-TZ.bibtex that contains the list in bibtex format
You can import this file easily into all common literature databanks and citation aid programs


List of essential papers. We consider these as the minimum necessary citations

  1. Neese,F.
     Software update: the ORCA program system, version 5.0
     WIRES Comput. Molec. Sci., 2022 12(1)e1606
     doi.org/10.1002/wcms.1606

List of papers to cite with high priority. The work reported in these papers was absolutely
necessary for this run to complete.
Our perspective: the developers of density functionals and basis sets usually get cited in chemistry papers
Good! But without the algorithms to do something with them, the functionals or basis sets would not do anything.
Hence, in our opinion, the algorithm design and method developments papers are equally worthy of getting cited

  1. Neese,F.
     An improvement of the resolution of the identity approximation for the formation of the Coulomb matrix
     J. Comp. Chem., 2003 24(14)1740-1747
     doi.org/10.1002/jcc.10318
  2. Bykov,D.; Petrenko,T.; Izsak,R.; Kossmann,S.; Becker,U.; Valeev,E.; Neese,F.
     Efficient implementation of the analytic second derivatives of Hartree-Fock and hybrid DFT energies: a detailed analysis of different approximations
     Molec. Phys., 2015 113 1961-1977
     doi.org/10.1080/00268976.2015.1025114
  3. Neese,F.
     The SHARK Integral Generation and Digestion System
     J. Comp. Chem., 2022  1-16
     doi.org/10.1002/jcc.26942
  4. Grimme,S.; Antony,J.; Ehrlich,S.; Krieg,H.
     A consistent and accurate ab initio parametrization of density functional dispersion correction (DFT-D) for the 94 elements H-Pu
     J. Chem. Phys., 2010 132 154104
     doi.org/10.1063/1.3382344
  5. Grimme,S.; Ehrlich,S.; Goerigk,L.
     Effect of the damping function in dispersion corrected density functional theory
     J. Comput. Chem., 2011 32(7)1456-1465
     doi.org/10.1002/jcc.21759

List of suggested additional citations. These are papers that are important in the 'surrounding' of 
of this run, or papers that preceded the highly important papers. If you like your results we are grateful for a citation.

  1. Neese,F.
     The ORCA program system
     WIRES Comput. Molec. Sci., 2012 2(1)73-78
     doi.org/10.1002/wcms.81
  2. Neese,F.
     Software update: the ORCA program system, version 4.0
     WIRES Comput. Molec. Sci., 2018 8(1)1-6
     doi.org/10.1002/wcms.1327
  3. Neese,F.; Wennmohs,F.; Becker,U.; Riplinger,C.
     The ORCA quantum chemistry program package
     J. Chem. Phys., 2020 152 Art. No. L224108
     doi.org/10.1063/5.0004608

List of optional additional citations

  1. Neese,F.
     Approximate second-order SCF convergence for spin unrestricted wavefunctions
     Chem. Phys. Lett., 2000 325(1-3)93-98
     doi.org/10.1016/s0009-2614(00)00662-x

Timings for individual modules:

Sum of individual times          ...     1326.930 sec (=  22.115 min)
Startup calculation              ...      148.334 sec (=   2.472 min)  11.2 %
SCF iterations                   ...      383.021 sec (=   6.384 min)  28.9 %
Property integrals               ...      184.220 sec (=   3.070 min)  13.9 %
SCF Response                     ...      310.876 sec (=   5.181 min)  23.4 %
Property calculations            ...       71.920 sec (=   1.199 min)   5.4 %
SCF Gradient evaluation          ...      228.150 sec (=   3.803 min)  17.2 %
Geometry relaxation              ...        0.408 sec (=   0.007 min)   0.0 %
                             ****ORCA TERMINATED NORMALLY****
TOTAL RUN TIME: 0 days 0 hours 22 minutes 13 seconds 46 msec
