
                                 *****************
                                 * O   R   C   A *
                                 *****************

                                            #,                                       
                                            ###                                      
                                            ####                                     
                                            #####                                    
                                            ######                                   
                                           ########,                                 
                                     ,,################,,,,,                         
                               ,,#################################,,                 
                          ,,##########################################,,             
                       ,#########################################, ''#####,          
                    ,#############################################,,   '####,        
                  ,##################################################,,,,####,       
                ,###########''''           ''''###############################       
              ,#####''   ,,,,##########,,,,          '''####'''          '####       
            ,##' ,,,,###########################,,,                        '##       
           ' ,,###''''                  '''############,,,                           
         ,,##''                                '''############,,,,        ,,,,,,###''
      ,#''                                            '''#######################'''  
     '                                                          ''''####''''         
             ,#######,   #######,   ,#######,      ##                                
            ,#'     '#,  ##    ##  ,#'     '#,    #''#        ,####,   ,####,        
            ##       ##  ##   ,#'  ##            #'  '#       #'       #'  '#        
            ##       ##  #######   ##           ,######,      #####,   #    #        
            '#,     ,#'  ##    ##  '#,     ,#' ,#      #,     #,   #   #,  ,#        
             '#######'   ##     ##  '#######'  #'      '#     '####' # '####'        



                #########################################################
                #                        -***-                          #
                #          Department of theory and spectroscopy        #
                #                                                       #
                #                      Frank Neese                      #
                #                                                       #
                #     Directorship, Architecture, Infrastructure        #
                #                    SHARK, DRIVERS                     #
                #        Core code/Algorithms in most modules           #
                #                                                       #
                #        Max Planck Institute fuer Kohlenforschung      #
                #                Kaiser Wilhelm Platz 1                 #
                #                 D-45470 Muelheim/Ruhr                 #
                #                      Germany                          #
                #                                                       #
                #                  All rights reserved                  #
                #                        -***-                          #
                #########################################################


                         Program Version 6.0.1  -  RELEASE   -


 With contributions from (in alphabetic order):
[Max-Planck-Institut fuer Kohlenforschung]                               
  Daniel Aravena         : Magnetic Suceptibility                        
  Michael Atanasov       : Ab Initio Ligand Field Theory (pilot matlab implementation)
  Alexander A. Auer      : GIAO ZORA, VPT2 properties, NMR spectrum      
  Ute Becker             : All parallelization in ORCA, NUMFREQ, NUMCALC 
  Giovanni Bistoni       : ED, misc. LED, open-shell LED, HFLD           
  Martin Brehm           : Molecular dynamics                            
  Dmytro Bykov           : pre 5.0 version of the SCF Hessian            
  Marcos Casanova-Páez   : Triplet and SCS-CIS(D). UHF-(DLPNO)-IP/EA/STEOM-CCSD. UHF-CVS-IP/STEOM-CCSD   
  Vijay G. Chilkuri      : MRCI spin determinant printing, contributions to CSF-ICE 
  Pauline Colinet        : FMM embedding                                 
  Dipayan Datta          : RHF DLPNO-CCSD density                        
  Achintya Kumar Dutta   : EOM-CC, STEOM-CC                              
  Nicolas Foglia         : Exact transition moments, OPA infrastructure, MCD improvements    
  Dmitry Ganyushin       : Spin-Orbit,Spin-Spin,Magnetic field MRCI      
  Miquel Garcia-Rates    : C-PCM and meta-GGA Hessian, CCSD/C-PCM, Gaussian charge scheme 
  Tiago L. C. Gouveia    : GS-ROHF, GS-ROCIS                             
  Yang Guo               : DLPNO-NEVPT2, F12-NEVPT2, CIM, IAO-localization        
  Andreas Hansen         : Spin unrestricted coupled pair/coupled cluster methods 
  Ingolf Harden          : AUTO-CI MPn and infrastructure                
  Benjamin Helmich-Paris : MC-RPA, TRAH-(SCF,CASSCF), AVAS, COSX integrals, SCF dyn. polar. 
  Lee Huntington         : MR-EOM, pCC                                   
  Robert Izsak           : Overlap fitted RIJCOSX, COSX-SCS-MP3, EOM     
  Riya Kayal             : Wick's Theorem for AUTO-CI, AUTO-CI UHF-CCSDT 
  Emily Kempfer          : AUTO-CI, RHF CISDT and CCSDT                  
  Christian Kollmar      : KDIIS, OOCD, Brueckner-CCSD(T), CCSD density, CASPT2, CASPT2-K, improved NEVPT2 
  Axel Koslowski         : Symmetry handling                             
  Simone Kossmann        : meta-GGA functionals, TD-DFT gradient, OOMP2, (MP2 Hessian; deprecated post 5.0) 
  Lucas Lang             : DCDCAS                                        
  Marvin Lechner         : AUTO-CI (C++ implementation), FIC-MRCC        
  Spencer Leger          : CASSCF response                               
  Dagmar Lenk            : GEPOL surface, SMD, ORCA-2-JSON               
  Dimitrios Liakos       : Extrapolation schemes; Compound Job, initial MDCI parallelization 
  Dimitrios Manganas     : Further ROCIS development; embedding schemes. LFT, Crystal Embedding 
  Dimitrios Pantazis     : SARC Basis sets                               
  Anastasios Papadopoulos: AUTO-CI, single reference methods and gradients 
  Taras Petrenko         : pre 6.0 DFT Hessian and TD-DFT gradient, (ASA, deprecated), ECA, 1-Electron XAS/XES, NRVS 
  Peter Pinski           : DLPNO-MP2, DLPNO-MP2 Gradient                 
  Christoph Reimann      : Effective Core Potentials                     
  Marius Retegan         : Local ZFS, SOC                                
  Christoph Riplinger    : Optimizer, TS searches, QM/MM, DLPNO-CCSD(T), (RO)-DLPNO pert. Triples 
  Michael Roemelt        : Original ROCIS implementation                 
  Masaaki Saitow         : Open-shell DLPNO-CCSD energy and density      
  Barbara Sandhoefer     : DKH picture change effects                    
  Kantharuban Sivalingam : CASSCF convergence/infrastructure, NEVPT2 and variants, FIC-MRCI 
  Bernardo de Souza      : ESD, SOC TD-DFT                               
  Georgi L. Stoychev     : AutoAux, RI-MP2 NMR, DLPNO-MP2 response, X2C  
  Van Anh Tran           : RI-MP2 g-tensors                              
  Willem Van den Heuvel  : Paramagnetic NMR                              
  Zikuan Wang            : NOTCH, Electric field optimization            
  Frank Wennmohs         : Technical directorship and infrastructure     
  Hang Xu                : AUTO-CI-Response properties                   
                                                                         
[FACCTs GmbH]                                                            
  Markus Bursch, Miquel Garcia-Rates, Christoph Riplinger, Bernardo de Souza, Georgi L. Stoychev 
                                                                 
  APM, Basis sets (HGBS, AHGBS, def-TZVP (Ac-Lr), def2-XVPD (La-Lu)), CI-OPT, improved COSX, DLPNO-Multilevel,           
  DOCKER, DRACO, updates on ESD, GOAT, IRC, LR-CPCM, MBIS, meta-GGA TD-DFT gradient, ML-optimized integration grids, 
  MM, NACMEs, nearIR, NEB, NEB-TS, NL-DFT gradient (VV10), 2- and 3-layer-ONIOM, interface openCOSMO-RS, QMMM,   
  Crystal-QMMM, SF, symmetry and pop. for TD-DFT, r2SCAN hybrids, SOLVATOR                                   
                                                                         
[Other institutions]                                                     
  V. Asgeirsson          : NEB                                           
  Christoph Bannwarth    : sTDA-DFT, sTD-DFT, PBEh-3c, B97-3c, D3        
  Sebastian Ehlert       : rSCAN, r2SCAN, r2SCAN-3c, D4, dhf basis sets  
  Marvin Friede          : D4 for Fr, Ra, Ac-Lr                          
  Lars Goerigk           : TD-DFT with DH, B97 family of functionals     
  Stefan Grimme          : VdW corrections, initial TS optimization, DFT functionals, gCP, sTDA/sTD-DF 
  Waldemar Hujo          : DFT-NL                                        
  H. Jonsson             : NEB                                           
  Holger Kruse           : gCP                                           
  Marcel Mueller         : wB97X-3c, vDZP basis set                      
  Hagen Neugebauer       : wr2SCAN                                       
  Tobias Risthaus        : range-separated hybrid DFT                    
  Lukas Wittmann         : regularized MP2, r2SCAN double-hybrids, wr2SCAN        
                                                                         
We gratefully acknowledge several colleagues who have allowed us to      
interface, adapt or use parts of their codes:                            
  Ed Valeev, F. Pavosevic, A. Kumar             : LibInt (2-el integral package), F12 methods 
  Garnet Chan, S. Sharma, J. Yang, R. Olivares  : DMRG                   
  Ulf Ekstrom                                   : XCFun DFT Library      
  Mihaly Kallay                                 : mrcc  (arbitrary order and MRCC methods)
  Frank Weinhold                                : gennbo (NPA and NBO analysis)           
  Simon Mueller                                 : openCOSMO-RS                            
  Christopher J. Cramer and Donald G. Truhlar   : smd solvation model                     
  S Lehtola, MJT Oliveira, MAL Marques          : LibXC Library                           
  Liviu Ungur et al                             : ANISO software                          


 Your calculation uses the libint2 library for the computation of 2-el integrals
 For citations please refer to: http://libint.valeyev.net

 Your ORCA version has been built with support for libXC version: 6.2.2
 For citations please refer to: https://libxc.gitlab.io

 This ORCA versions uses:
   CBLAS   interface :  Fast vector & matrix operations
   LAPACKE interface :  Fast linear algebra routines
   SCALAPACK package :  Parallel linear algebra routines
   Shared memory     :  Shared parallel matrices
   BLAS/LAPACK       :  OpenBLAS 0.3.27  USE64BITINT DYNAMIC_ARCH NO_AFFINITY Zen SINGLE_THREADED
        Core in use  :  Zen
   Copyright (c) 2011-2014, The OpenBLAS Project


NOTE: MaxCore=6000 MB was set to SCF,MP2,MDCI,CIPSI,MRCI and CIS
      => If you want to overwrite this, your respective input block should be placed after the MaxCore statement
Your calculation utilizes the atom-pairwise dispersion correction
with the Becke-Johnson damping scheme (D3BJ)


Your calculation employs the composite approach B97-3c by Grimme and coworkers.
For the correct reference, please check the publication list of the Grimme group:
http://www.thch.uni-bonn.de/tc/index.php?section=publikationen&subsection=grimme#2017
   

XCFun DFT library Copyright 2009-2010 Ulf Ekstrom and contributors.
See http://admol.org/xcfun for more information.
This is free software; see the source code for copying conditions.
There is ABSOLUTELY NO WARRANTY; not even for MERCHANTABILITY or FITNESS FOR A PARTICULAR PURPOSE.
For details see the documentation.
Scientific users of this library should cite U. Ekstrom, L. Visscher, R. Bast, A. J. Thorvaldsen and K. Ruud;
J.Chem.Theor.Comp. 2010, DOI: 10.1021/ct100117s
XCFun Version 0.99 

================================================================================

----- Orbital basis set information -----
Your calculation utilizes the basis: def2-mTZVP
----- AuxJ basis set information -----
Your calculation utilizes the basis: def2-mTZVP/J
================================================================================
                                        WARNINGS
                       Please study these warnings very carefully!
================================================================================


WARNING: Geometry Optimization
  ===> : Switching off AutoStart
         For restart on a previous wavefunction, please use MOREAD

================================================================================
                                       INPUT FILE
================================================================================
NAME = m1_00_Tenofovir-GitHubGFN2-B97-3C-TZ.inp
|  1> %pal nprocs 16 end
|  2> %MaxCore 6000
|  3> # put your comments here
|  4> ! B97-3C  OPT  FREQ DEFGRID3 NOTRAH
|  5> %scf MaxIter 800 end
|  6> %output
|  7> Print [P_Hirshfeld] 1
|  8> end
|  9> %geom
| 10> MaxIter 3000
| 11>  TolE 1e-6 #TolE 5e-6 Energy change (a.u.)
| 12>  TolRMSG 3e-5 #TolRMSG 1e-4 RMS gradient (a.u.)
| 13>  TolMaxG 1e-4 #TolMaxG 3e-3 Max. element of gradient (a.u.)
| 14>  TolRMSD 2e-3 #TolRMSD 2e-3 RMS displacement (a.u.)
| 15>  TolMaxD 4e-3 #TolMaxD 4e-3 Max. displacement (a.u.)
| 16> end
| 17> * xyz 0 1
| 18>  P         2.8704720992        -0.6670220019        -0.1576389606
| 19>  O         3.2972520973         0.2474419670        -1.2307259879
| 20>  O         1.7946680746        -1.7368779933        -0.5777509195
| 21>  H         0.8222010805        -1.4955879745        -0.4614839093
| 22>  O         4.0884730928        -1.5649940103         0.3763970400
| 23>  H         4.7655880818        -1.5742930367        -0.3009649706
| 24>  C         2.2831761374         0.1120800431         1.4153760314
| 25>  O         1.0895861465         0.8230650592         1.2441960345
| 26>  C         1.1644381508         1.9290580381         0.3533300086
| 27>  C         0.5483681821         3.1432530638         1.0447889912
| 28>  H         0.5844551861         4.0104020486         0.3912249713
| 29>  H         1.0995202003         3.3644600750         1.9548369775
| 30>  H        -0.4838648171         2.9348220871         1.3156060124
| 31>  H         2.2106681501         2.1339800149         0.0997659873
| 32>  C         0.4380331240         1.5925770206        -0.9673129723
| 33>  N        -0.9267068787         1.2105730486        -0.7372139419
| 34>  C        -1.3905308934        -0.0163939356        -0.3753149071
| 35>  N        -0.7448529111        -1.1825949438        -0.2634718913
| 36>  C        -1.5288159220        -2.1842859226         0.1014911437
| 37>  N        -2.8231289176        -2.1587088954         0.3480861638
| 38>  C        -3.4892169002        -1.0043828870         0.2284351486
| 39>  N        -4.8071108961        -0.9918328595         0.4730801693
| 40>  H        -5.2647889062        -1.8456718460         0.7366101958
| 41>  H        -5.3162478832        -0.1317658530         0.3823271582
| 42>  C        -2.7706898872         0.1428520925        -0.1516008886
| 43>  N        -3.1237068689         1.4487690935        -0.3716649122
| 44>  C        -2.0151878644         2.0366390675        -0.7048719430
| 45>  H        -1.9442288510         3.0766800607        -0.9571669674
| 46>  H        -1.0458619364        -3.1459359283         0.2077891575
| 47>  H         0.9607601024         0.7708430009        -1.4600739623
| 48>  H         0.4565141282         2.4683660057        -1.6194549922
| 49>  H         2.0737561357        -0.6785849372         2.1362310524
| 50>  H         3.0827141544         0.7532170386         1.8080500042
| 51> *
| 52> 
| 53> 
| 54> 
| 55> 
| 56>                          ****END OF INPUT****
================================================================================

                       *****************************
                       * Geometry Optimization Run *
                       *****************************

Geometry optimization settings:
Update method            Update   .... BFGS
Choice of coordinates    CoordSys .... (2022) Redundant Internals
Initial Hessian          InHess   .... Almloef's Model
Max. no of cycles        MaxIter  .... 3000

Convergence Tolerances:
Energy Change            TolE     ....  1.0000e-06 Eh
Max. Gradient            TolMAXG  ....  1.0000e-04 Eh/bohr
RMS Gradient             TolRMSG  ....  3.0000e-05 Eh/bohr
Max. Displacement        TolMAXD  ....  4.0000e-03 bohr
RMS Displacement         TolRMSD  ....  2.0000e-03 bohr
Strict Convergence                .... False

------------------------------------------------------------------------------
                        ORCA OPTIMIZATION COORDINATE SETUP
------------------------------------------------------------------------------

The optimization will be done in redundant internal coordinates (2022)
Making redundant internal coordinates   ...  (2022 redundants) done
Evaluating the initial hessian          ...  (Almloef) done
Evaluating the coordinates              ...  done
Calculating the B-matrix                .... done
Calculating the G-matrix                .... done
Diagonalizing the G-matrix              .... done
Small eigenvalue found = 5.196e-03
Small eigenvalue found = 8.191e-03
Small eigenvalue found = 1.547e-02
Small eigenvalue found = 2.827e-02
The first mode is                       ....   68
The number of degrees of freedom        ....   93

    -----------------------------------------------------------------
                    Redundant Internal Coordinates


    -----------------------------------------------------------------
         Definition                    Initial Value    Approx d2E/dq
    -----------------------------------------------------------------
      1. B(O   1,P   0)                  1.4731         1.386293   
      2. B(O   2,P   0)                  1.5743         0.955698   
      3. B(H   3,P   0)                  2.2303         0.018350   
      4. B(H   3,O   2)                  1.0087         0.434815   
      5. B(O   4,P   0)                  1.6047         0.854718   
      6. B(H   5,O   4)                  0.9578         0.524166   
      7. B(C   6,P   0)                  1.8510         0.386097   
      8. B(O   7,C   6)                  1.3998         0.539795   
      9. B(C   8,O   7)                  1.4221         0.497287   
     10. B(C   9,C   8)                  1.5271         0.377625   
     11. B(H  10,C   9)                  1.0865         0.364813   
     12. B(H  11,C   9)                  1.0867         0.364510   
     13. B(H  12,C   9)                  1.0873         0.363647   
     14. B(H  13,C   8)                  1.0958         0.352445   
     15. B(C  14,C   8)                  1.5443         0.354406   
     16. B(N  15,C  14)                  1.4358         0.473019   
     17. B(C  16,N  15)                  1.3607         0.623152   
     18. B(N  17,H   3)                  1.6102         0.047706   
     19. B(N  17,C  16)                  1.3377         0.678143   
     20. B(C  18,N  17)                  1.3233         0.714918   
     21. B(N  19,C  18)                  1.3178         0.729454   
     22. B(C  20,N  19)                  1.3381         0.677190   
     23. B(N  21,C  20)                  1.3405         0.671276   
     24. B(H  22,N  21)                  1.0040         0.442398   
     25. B(H  23,N  21)                  1.0036         0.443035   
     26. B(C  24,C  20)                  1.4060         0.589115   
     27. B(C  24,C  16)                  1.4072         0.586513   
     28. B(N  25,C  24)                  1.3706         0.600995   
     29. B(C  26,N  25)                  1.2982         0.783916   
     30. B(C  26,N  15)                  1.3668         0.609317   
     31. B(H  27,C  26)                  1.0726         0.383934   
     32. B(H  28,C  18)                  1.0813         0.371729   
     33. B(H  29,C  14)                  1.0915         0.358162   
     34. B(H  30,C  14)                  1.0921         0.357360   
     35. B(H  31,C   6)                  1.0902         0.359773   
     36. B(H  32,C   6)                  1.0975         0.350311   
     37. A(O   1,P   0,O   4)          111.7103         0.605996   
     38. A(O   2,P   0,C   6)          107.2172         0.488724   
     39. A(O   1,P   0,C   6)          116.7241         0.523832   
     40. A(O   1,P   0,O   2)          115.1797         0.619229   
     41. A(O   4,P   0,C   6)          101.1597         0.478748   
     42. A(O   2,P   0,O   4)          103.1325         0.564254   
     43. A(P   0,O   2,H   3)          117.7423         0.412516   
     44. A(P   0,O   4,H   5)          107.8583         0.418071   
     45. A(P   0,C   6,H  32)          108.5899         0.344625   
     46. A(O   7,C   6,H  32)          111.6062         0.341081   
     47. A(P   0,C   6,O   7)          112.3586         0.412262   
     48. A(P   0,C   6,H  31)          108.5166         0.346172   
     49. A(O   7,C   6,H  31)          106.5838         0.342606   
     50. A(H  31,C   6,H  32)          109.0884         0.289543   
     51. A(C   6,O   7,C   8)          115.2603         0.401917   
     52. A(O   7,C   8,C   9)          108.2690         0.380002   
     53. A(H  13,C   8,C  14)          106.9743         0.320402   
     54. A(C   9,C   8,C  14)          111.7584         0.360762   
     55. A(O   7,C   8,C  14)          109.9676         0.375853   
     56. A(C   9,C   8,H  13)          109.9533         0.323749   
     57. A(O   7,C   8,H  13)          109.9150         0.336784   
     58. A(C   8,C   9,H  12)          110.0812         0.325418   
     59. A(H  10,C   9,H  11)          108.9326         0.291993   
     60. A(C   8,C   9,H  10)          110.4158         0.325589   
     61. A(C   8,C   9,H  11)          109.6601         0.325545   
     62. A(H  11,C   9,H  12)          108.1753         0.291846   
     63. A(H  10,C   9,H  12)          109.5333         0.291884   
     64. A(N  15,C  14,H  29)          109.1034         0.334888   
     65. A(H  29,C  14,H  30)          109.0299         0.290245   
     66. A(C   8,C  14,H  30)          109.1457         0.321128   
     67. A(C   8,C  14,N  15)          111.5937         0.372623   
     68. A(N  15,C  14,H  30)          108.9752         0.334763   
     69. A(C   8,C  14,H  29)          108.9558         0.321246   
     70. A(C  14,N  15,C  16)          127.3401         0.408614   
     71. A(C  16,N  15,C  26)          105.4987         0.427466   
     72. A(C  14,N  15,C  26)          126.8669         0.406994   
     73. A(N  15,C  16,N  17)          130.0767         0.435765   
     74. A(N  17,C  16,C  24)          123.9704         0.433879   
     75. A(N  15,C  16,C  24)          105.9355         0.427341   
     76. A(C  16,N  17,C  18)          113.3919         0.446716   
     77. A(N  17,C  18,N  19)          128.2255         0.452671   
     78. A(N  19,C  18,H  28)          115.9453         0.362508   
     79. A(N  17,C  18,H  28)          115.8289         0.361265   
     80. A(C  18,N  19,C  20)          119.2694         0.448235   
     81. A(N  19,C  20,N  21)          118.7617         0.441541   
     82. A(N  21,C  20,C  24)          122.9650         0.433431   
     83. A(N  19,C  20,C  24)          118.2733         0.434115   
     84. A(C  20,N  21,H  23)          119.3601         0.365032   
     85. A(C  20,N  21,H  22)          119.2180         0.364942   
     86. A(H  22,N  21,H  23)          121.4202         0.305487   
     87. A(C  20,C  24,N  25)          133.5693         0.424916   
     88. A(C  16,C  24,N  25)          109.5675         0.424580   
     89. A(C  16,C  24,C  20)          116.8624         0.425838   
     90. A(C  24,N  25,C  26)          104.6398         0.444405   
     91. A(N  25,C  26,H  27)          123.7767         0.369043   
     92. A(N  15,C  26,H  27)          121.8565         0.353519   
     93. A(N  15,C  26,N  25)          114.3545         0.445513   
     94. D(H   3,O   2,P   0,O   1)    -91.1976         0.017005   
     95. D(H   3,O   2,P   0,O   4)    146.8364         0.017005   
     96. D(H   3,O   2,P   0,C   6)     40.5546         0.017005   
     97. D(H   5,O   4,P   0,C   6)   -145.5470         0.013694   
     98. D(H   5,O   4,P   0,O   1)    -20.6640         0.013694   
     99. D(H   5,O   4,P   0,O   2)    103.6088         0.013694   
    100. D(H  31,C   6,P   0,O   4)    -54.4016         0.003824   
    101. D(O   7,C   6,P   0,O   2)    -64.3245         0.003824   
    102. D(O   7,C   6,P   0,O   1)     66.5728         0.003824   
    103. D(H  31,C   6,P   0,O   2)     53.2711         0.003824   
    104. D(H  31,C   6,P   0,O   1)   -175.8316         0.003824   
    105. D(O   7,C   6,P   0,O   4)   -171.9971         0.003824   
    106. D(H  32,C   6,P   0,O   1)    -57.3738         0.003824   
    107. D(C   8,O   7,C   6,P   0)    -62.6670         0.023179   
    108. D(C   8,O   7,C   6,H  31)    178.5958         0.023179   
    109. D(C   8,O   7,C   6,H  32)     59.5864         0.023179   
    110. D(C  14,C   8,O   7,C   6)    107.0521         0.019544   
    111. D(H  13,C   8,O   7,C   6)    -10.4643         0.019544   
    112. D(C   9,C   8,O   7,C   6)   -130.5850         0.019544   
    113. D(H  11,C   9,C   8,C  14)   -178.5856         0.011373   
    114. D(H  11,C   9,C   8,H  13)    -59.9451         0.011373   
    115. D(H  11,C   9,C   8,O   7)     60.1518         0.011373   
    116. D(H  10,C   9,C   8,C  14)    -58.5452         0.011373   
    117. D(H  10,C   9,C   8,H  13)     60.0954         0.011373   
    118. D(H  10,C   9,C   8,O   7)   -179.8078         0.011373   
    119. D(H  29,C  14,C   8,C   9)    175.6362         0.010100   
    120. D(H  29,C  14,C   8,O   7)    -64.0902         0.010100   
    121. D(N  15,C  14,C   8,H  13)    175.7763         0.010100   
    122. D(N  15,C  14,C   8,C   9)    -63.8262         0.010100   
    123. D(H  29,C  14,C   8,H  13)     55.2387         0.010100   
    124. D(N  15,C  14,C   8,O   7)     56.4474         0.010100   
    125. D(C  26,N  15,C  14,H  29)   -149.4051         0.019123   
    126. D(C  26,N  15,C  14,C   8)     90.1438         0.019123   
    127. D(C  16,N  15,C  14,H  30)    156.6915         0.019123   
    128. D(C  16,N  15,C  14,H  29)     37.7457         0.019123   
    129. D(C  16,N  15,C  14,C   8)    -82.7054         0.019123   
    130. D(C  24,C  16,N  15,C  26)      0.5324         0.031469   
    131. D(C  24,C  16,N  15,C  14)    174.6005         0.031469   
    132. D(N  17,C  16,N  15,C  26)    179.0310         0.031469   
    133. D(N  17,C  16,N  15,C  14)     -6.9010         0.031469   
    134. D(C  18,N  17,C  16,C  24)     -0.9697         0.037821   
    135. D(C  18,N  17,C  16,N  15)   -179.2287         0.037821   
    136. D(H  28,C  18,N  17,C  16)   -179.7662         0.042478   
    137. D(N  19,C  18,N  17,C  16)      0.4316         0.042478   
    138. D(C  20,N  19,C  18,H  28)   -179.5815         0.040176   
    139. D(C  20,N  19,C  18,N  17)      0.2206         0.040176   
    140. D(C  24,C  20,N  19,C  18)     -0.3463         0.034131   
    141. D(N  21,C  20,N  19,C  18)    179.5619         0.034131   
    142. D(H  23,N  21,C  20,C  24)      0.1566         0.036988   
    143. D(H  23,N  21,C  20,N  19)   -179.7470         0.036988   
    144. D(H  22,N  21,C  20,C  24)    179.6951         0.036988   
    145. D(H  22,N  21,C  20,N  19)     -0.2085         0.036988   
    146. D(N  25,C  24,C  20,N  21)     -0.4001         0.023880   
    147. D(C  16,C  24,C  20,N  21)    179.9445         0.023880   
    148. D(C  16,C  24,C  20,N  19)     -0.1514         0.023880   
    149. D(N  25,C  24,C  16,N  17)   -178.8704         0.023659   
    150. D(N  25,C  24,C  16,N  15)     -0.2557         0.023659   
    151. D(N  25,C  24,C  20,N  19)    179.5040         0.023880   
    152. D(C  20,C  24,C  16,N  17)      0.8646         0.023659   
    153. D(C  20,C  24,C  16,N  15)    179.4793         0.023659   
    154. D(C  26,N  25,C  24,C  20)   -179.8205         0.026386   
    155. D(C  26,N  25,C  24,C  16)     -0.1468         0.026386   
    156. D(N  25,C  26,N  15,C  14)   -174.7934         0.029984   
    157. D(H  27,C  26,N  25,C  24)    179.2593         0.047137   
    158. D(N  15,C  26,N  25,C  24)      0.5182         0.047137   
    159. D(H  27,C  26,N  15,C  16)   -179.4563         0.029984   
    160. D(H  27,C  26,N  15,C  14)      6.4386         0.029984   
    161. D(N  25,C  26,N  15,C  16)     -0.6883         0.029984   
    -----------------------------------------------------------------

Number of atoms                         .... 33
Number of degrees of freedom            .... 161


         *************************************************************
         *                GEOMETRY OPTIMIZATION CYCLE   1            *
         *************************************************************
---------------------------------
CARTESIAN COORDINATES (ANGSTROEM)
---------------------------------
  P      2.870472   -0.667022   -0.157639
  O      3.297252    0.247442   -1.230726
  O      1.794668   -1.736878   -0.577751
  H      0.822201   -1.495588   -0.461484
  O      4.088473   -1.564994    0.376397
  H      4.765588   -1.574293   -0.300965
  C      2.283176    0.112080    1.415376
  O      1.089586    0.823065    1.244196
  C      1.164438    1.929058    0.353330
  C      0.548368    3.143253    1.044789
  H      0.584455    4.010402    0.391225
  H      1.099520    3.364460    1.954837
  H     -0.483865    2.934822    1.315606
  H      2.210668    2.133980    0.099766
  C      0.438033    1.592577   -0.967313
  N     -0.926707    1.210573   -0.737214
  C     -1.390531   -0.016394   -0.375315
  N     -0.744853   -1.182595   -0.263472
  C     -1.528816   -2.184286    0.101491
  N     -2.823129   -2.158709    0.348086
  C     -3.489217   -1.004383    0.228435
  N     -4.807111   -0.991833    0.473080
  H     -5.264789   -1.845672    0.736610
  H     -5.316248   -0.131766    0.382327
  C     -2.770690    0.142852   -0.151601
  N     -3.123707    1.448769   -0.371665
  C     -2.015188    2.036639   -0.704872
  H     -1.944229    3.076680   -0.957167
  H     -1.045862   -3.145936    0.207789
  H      0.960760    0.770843   -1.460074
  H      0.456514    2.468366   -1.619455
  H      2.073756   -0.678585    2.136231
  H      3.082714    0.753217    1.808050

----------------------------
CARTESIAN COORDINATES (A.U.)
----------------------------
  NO LB      ZA    FRAG     MASS         X           Y           Z
   0 P    15.0000    0    30.974    5.424406   -1.260489   -0.297894
   1 O     8.0000    0    15.999    6.230903    0.467598   -2.325735
   2 O     8.0000    0    15.999    3.391431   -3.282224   -1.091791
   3 H     1.0000    0     1.008    1.553735   -2.826252   -0.872078
   4 O     8.0000    0    15.999    7.726094   -2.957410    0.711287
   5 H     1.0000    0     1.008    9.005656   -2.974983   -0.568741
   6 C     6.0000    0    12.011    4.314578    0.211801    2.674673
   7 O     8.0000    0    15.999    2.059019    1.555368    2.351190
   8 C     6.0000    0    12.011    2.200469    3.645391    0.667697
   9 C     6.0000    0    12.011    1.036266    5.939887    1.974365
  10 H     1.0000    0     1.008    1.104460    7.578562    0.739308
  11 H     1.0000    0     1.008    2.077792    6.357908    3.694107
  12 H     1.0000    0     1.008   -0.914372    5.546010    2.486135
  13 H     1.0000    0     1.008    4.177557    4.032638    0.188530
  14 C     6.0000    0    12.011    0.827763    3.009534   -1.827957
  15 N     7.0000    0    14.007   -1.751222    2.287652   -1.393132
  16 C     6.0000    0    12.011   -2.627723   -0.030980   -0.709242
  17 N     7.0000    0    14.007   -1.407568   -2.234781   -0.497890
  18 C     6.0000    0    12.011   -2.889043   -4.127702    0.191790
  19 N     7.0000    0    14.007   -5.334940   -4.079369    0.657788
  20 C     6.0000    0    12.011   -6.593664   -1.898009    0.431680
  21 N     7.0000    0    14.007   -9.084123   -1.874292    0.893992
  22 H     1.0000    0     1.008   -9.949009   -3.487814    1.391992
  23 H     1.0000    0     1.008  -10.046253   -0.249001    0.722494
  24 C     6.0000    0    12.011   -5.235845    0.269951   -0.286484
  25 N     7.0000    0    14.007   -5.902951    2.737777   -0.702345
  26 C     6.0000    0    12.011   -3.808153    3.848690   -1.332015
  27 H     1.0000    0     1.008   -3.674060    5.814083   -1.808783
  28 H     1.0000    0     1.008   -1.976393   -5.944957    0.392665
  29 H     1.0000    0     1.008    1.815573    1.456682   -2.759140
  30 H     1.0000    0     1.008    0.862687    4.664536   -3.060326
  31 H     1.0000    0     1.008    3.918831   -1.282340    4.036892
  32 H     1.0000    0     1.008    5.825486    1.423374    3.416719

--------------------------------
INTERNAL COORDINATES (ANGSTROEM)
--------------------------------
 P      0   0   0     0.000000000000     0.00000000     0.00000000
 O      1   0   0     1.473058479951     0.00000000     0.00000000
 O      1   2   0     1.574306259814   115.17974892     0.00000000
 H      3   1   2     1.008677820440   117.74234784   268.80244706
 O      1   2   3     1.604703897365   111.71032880   117.22046422
 H      5   1   2     0.957805029024   107.85833086   339.33600780
 C      1   2   3     1.851024772478   116.72408315   232.92283299
 O      7   1   2     1.399806897695   112.35860468    66.57279887
 C      8   7   1     1.422134159644   115.26031879   297.33302357
 C      9   8   7     1.527064927037   108.26902239   229.41498240
 H     10   9   8     1.086460105943   110.41580625   180.19220194
 H     10   9   8     1.086686903546   109.66007670    60.15175884
 H     10   9   8     1.087331732112   110.08123248   301.25174847
 H      9   8   7     1.095848958985   109.91500328   349.53572635
 C      9   8   7     1.544338570748   109.96761706   107.05211060
 N     15   9   8     1.435753416637   111.59371225    56.44740673
 C     16  15   9     1.360717313889   127.34005225   277.29457076
 N     17  16  15     1.337697166229   130.07668743   353.09903272
 C     18  17  16     1.323321894471   113.39193026   180.77125397
 N     19  18  17     1.317842713998   128.22551840     0.43157647
 C     20  19  18     1.338080004959   119.26939609     0.22056194
 N     21  20  19     1.340467557896   118.76170658   179.56187741
 H     22  21  20     1.003971239958   119.21802911   359.79153682
 H     22  21  20     1.003579511711   119.36012374   180.25299966
 C     21  20  19     1.406007310141   118.27325534   359.65371391
 N     25  21  20     1.370572280966   133.56933516   179.50396683
 C     26  25  21     1.298242047941   104.63975138   180.17946031
 H     27  26  25     1.072554534024   123.77668350   179.25928908
 H     19  18  17     1.081348488420   115.82888185   180.23380941
 H     15   9   8     1.091468591552   108.95582397   295.90982931
 H     15   9   8     1.092079259055   109.14565049   176.95072224
 H      7   1   2     1.090247590910   108.51658321   184.16836571
 H      7   1   2     1.097501952865   108.58990794   302.62615778

---------------------------
INTERNAL COORDINATES (A.U.)
---------------------------
 P      0   0   0     0.000000000000     0.00000000     0.00000000
 O      1   0   0     2.783677106357     0.00000000     0.00000000
 O      1   2   0     2.975007681967   115.17974892     0.00000000
 H      3   1   2     1.906124837992   117.74234784   268.80244706
 O      1   2   3     3.032450892055   111.71032880   117.22046422
 H      5   1   2     1.809989194549   107.85833086   339.33600780
 C      1   2   3     3.497929887087   116.72408315   232.92283299
 O      7   1   2     2.645251677017   112.35860468    66.57279887
 C      8   7   1     2.687444087422   115.26031879   297.33302357
 C      9   8   7     2.885734500817   108.26902239   229.41498240
 H     10   9   8     2.053112055663   110.41580625   180.19220194
 H     10   9   8     2.053540641021   109.66007670    60.15175884
 H     10   9   8     2.054759190413   110.08123248   301.25174847
 H      9   8   7     2.070854416625   109.91500328   349.53572635
 C      9   8   7     2.918376956764   109.96761706   107.05211060
 N     15   9   8     2.713180753285   111.59371225    56.44740673
 C     16  15   9     2.571383068936   127.34005225   277.29457076
 N     17  16  15     2.527881294295   130.07668743   353.09903272
 C     18  17  16     2.500715967571   113.39193026   180.77125397
 N     19  18  17     2.490361817040   128.22551840     0.43157647
 C     20  19  18     2.528604754649   119.26939609     0.22056194
 N     21  20  19     2.533116575830   118.76170658   179.56187741
 H     22  21  20     1.897230689855   119.21802911   359.79153682
 H     22  21  20     1.896490430749   119.36012374   180.25299966
 C     21  20  19     2.656968758458   118.27325534   359.65371391
 N     25  21  20     2.590006257770   133.56933516   179.50396683
 C     26  25  21     2.453321926150   104.63975138   180.17946031
 H     27  26  25     2.026834333002   123.77668350   179.25928908
 H     19  18  17     2.043452498443   115.82888185   180.23380941
 H     15   9   8     2.062576721811   108.95582397   295.90982931
 H     15   9   8     2.063730716149   109.14565049   176.95072224
 H      7   1   2     2.060269364988   108.51658321   184.16836571
 H      7   1   2     2.073978122358   108.58990794   302.62615778

---------------------
BASIS SET INFORMATION
---------------------
There are 5 groups of distinct atoms

 Group   1 Type P   : 14s9p1d contracted to 5s4p1d pattern {73211/6111/1}
 Group   2 Type O   : 11s6p2d contracted to 5s3p2d pattern {62111/411/11}
 Group   3 Type H   : 5s contracted to 3s pattern {311}
 Group   4 Type C   : 11s6p1d contracted to 5s3p1d pattern {62111/411/1}
 Group   5 Type N   : 11s6p1d contracted to 5s3p1d pattern {62111/411/1}

Atom   0P    basis set group =>   1
Atom   1O    basis set group =>   2
Atom   2O    basis set group =>   2
Atom   3H    basis set group =>   3
Atom   4O    basis set group =>   2
Atom   5H    basis set group =>   3
Atom   6C    basis set group =>   4
Atom   7O    basis set group =>   2
Atom   8C    basis set group =>   4
Atom   9C    basis set group =>   4
Atom  10H    basis set group =>   3
Atom  11H    basis set group =>   3
Atom  12H    basis set group =>   3
Atom  13H    basis set group =>   3
Atom  14C    basis set group =>   4
Atom  15N    basis set group =>   5
Atom  16C    basis set group =>   4
Atom  17N    basis set group =>   5
Atom  18C    basis set group =>   4
Atom  19N    basis set group =>   5
Atom  20C    basis set group =>   4
Atom  21N    basis set group =>   5
Atom  22H    basis set group =>   3
Atom  23H    basis set group =>   3
Atom  24C    basis set group =>   4
Atom  25N    basis set group =>   5
Atom  26C    basis set group =>   4
Atom  27H    basis set group =>   3
Atom  28H    basis set group =>   3
Atom  29H    basis set group =>   3
Atom  30H    basis set group =>   3
Atom  31H    basis set group =>   3
Atom  32H    basis set group =>   3
---------------------------------
AUXILIARY/J BASIS SET INFORMATION
---------------------------------
There are 5 groups of distinct atoms

 Group   1 Type P   : 14s5p5d2f1g contracted to 8s4p3d1f1g pattern {71111111/2111/311/2/1}
 Group   2 Type O   : 8s3p3d contracted to 6s3p3d pattern {311111/111/111}
 Group   3 Type H   : 5s2p contracted to 3s1p pattern {311/2}
 Group   4 Type C   : 8s3p3d contracted to 6s3p3d pattern {311111/111/111}
 Group   5 Type N   : 8s3p3d contracted to 6s3p3d pattern {311111/111/111}

Atom   0P    basis set group =>   1
Atom   1O    basis set group =>   2
Atom   2O    basis set group =>   2
Atom   3H    basis set group =>   3
Atom   4O    basis set group =>   2
Atom   5H    basis set group =>   3
Atom   6C    basis set group =>   4
Atom   7O    basis set group =>   2
Atom   8C    basis set group =>   4
Atom   9C    basis set group =>   4
Atom  10H    basis set group =>   3
Atom  11H    basis set group =>   3
Atom  12H    basis set group =>   3
Atom  13H    basis set group =>   3
Atom  14C    basis set group =>   4
Atom  15N    basis set group =>   5
Atom  16C    basis set group =>   4
Atom  17N    basis set group =>   5
Atom  18C    basis set group =>   4
Atom  19N    basis set group =>   5
Atom  20C    basis set group =>   4
Atom  21N    basis set group =>   5
Atom  22H    basis set group =>   3
Atom  23H    basis set group =>   3
Atom  24C    basis set group =>   4
Atom  25N    basis set group =>   5
Atom  26C    basis set group =>   4
Atom  27H    basis set group =>   3
Atom  28H    basis set group =>   3
Atom  29H    basis set group =>   3
Atom  30H    basis set group =>   3
Atom  31H    basis set group =>   3
Atom  32H    basis set group =>   3


           ************************************************************
           *        Program running with 16 parallel MPI-processes    *
           *              working on a common directory               *
           ************************************************************
------------------------------------------------------------------------------
                             ORCA STARTUP CALCULATIONS
                           -- RI-GTO INTEGRALS CHOSEN --
------------------------------------------------------------------------------
------------------------------------------------------------------------------
                   ___                                                        
                  /   \      - P O W E R E D   B Y -                         
                 /     \                                                     
                 |  |  |   _    _      __       _____    __    __             
                 |  |  |  | |  | |    /  \     |  _  \  |  |  /  |          
                  \  \/   | |  | |   /    \    | | | |  |  | /  /          
                 / \  \   | |__| |  /  /\  \   | |_| |  |  |/  /          
                |  |  |   |  __  | /  /__\  \  |    /   |      \           
                |  |  |   | |  | | |   __   |  |    \   |  |\   \          
                \     /   | |  | | |  |  |  |  | |\  \  |  | \   \       
                 \___/    |_|  |_| |__|  |__|  |_| \__\ |__|  \__/        
                                                                              
                      - O R C A' S   B I G   F R I E N D -                    
                                      &                                       
                       - I N T E G R A L  F E E D E R -                       
                                                                              
 v1 FN, 2020, v2 2021, v3 2022-2024                                           
------------------------------------------------------------------------------


----------------------
SHARK INTEGRAL PACKAGE
----------------------

Number of atoms                             ...     33
Number of basis functions                   ...    426
Number of shells                            ...    218
Maximum angular momentum                    ...      2
Integral batch strategy                     ... SHARK/LIBINT Hybrid
RI-J (if used) integral strategy            ... SPLIT-RIJ (Revised 2003 algorithm where possible)
Printlevel                                  ...      1
Contraction scheme used                     ... SEGMENTED contraction
Prescreening option                         ... SCHWARTZ
   Thresh                                   ... 2.500e-11
   Tcut                                     ... 2.500e-12
   Tpresel                                  ... 2.500e-12 
Coulomb Range Separation                    ... NOT USED
Exchange Range Separation                   ... NOT USED
Multipole approximations                    ... NOT USED
Finite Nucleus Model                        ... NOT USED
CABS basis                                  ... NOT available
Auxiliary Coulomb fitting basis             ... AVAILABLE
   # of basis functions in Aux-J            ...    675
   # of shells in Aux-J                     ...    289
   Maximum angular momentum in Aux-J        ...      4
Auxiliary J/K fitting basis                 ... NOT available
Auxiliary Correlation fitting basis         ... NOT available
Auxiliary 'external' fitting basis          ... NOT available

Checking pre-screening integrals            ... done (  0.0 sec) Dimension = 218
Check shell pair data                       ... done (  0.0 sec)
Shell pair information
Shell pair cut-off parameter TPreSel        ...   2.5e-12
Total number of shell pairs                 ...     23871
Shell pairs after pre-screening             ...     18648
Total number of primitive shell pairs       ...     89731
Primitive shell pairs kept                  ...     44427
          la=0 lb=0:   6856 shell pairs
          la=1 lb=0:   6531 shell pairs
          la=1 lb=1:   1539 shell pairs
          la=2 lb=0:   2358 shell pairs
          la=2 lb=1:   1142 shell pairs
          la=2 lb=2:    222 shell pairs

Calculating one electron integrals          ... done (  0.0 sec)
Calculating RI/J V-Matrix + Cholesky decomp.... done (  0.0 sec)
Calculating Nuclear repulsion               ... done (  0.0 sec) ENN=   1737.056040929727 Eh

Diagonalization of the overlap matrix:
Smallest eigenvalue                        ... 3.138e-05
Time for diagonalization                   ...    0.016 sec
Threshold for overlap eigenvalues          ... 1.000e-07
Number of eigenvalues below threshold      ... 0
Time for construction of square roots      ...    0.008 sec
Total time needed                          ...    0.025 sec

-------------------
DFT GRID GENERATION
-------------------

General Integration Accuracy     IntAcc      ... 4.959
Radial Grid Type                 RadialGrid  ... OptM3 with GC (2021)
Angular Grid (max. ang.)         AngularGrid ... 6 (Lebedev-590)
Angular grid pruning method      GridPruning ... 4 (adaptive)
Weight generation scheme         WeightScheme... mBecke (2022)
Basis function cutoff            BFCut       ... 1.0000e-11
Integration weight cutoff        WCut        ... 1.0000e-14
Partially contracted basis set               ... off
Rotationally invariant grid construction     ... off
Angular grids for H and He will be reduced by one unit
Diffuse basis detected: some atoms will have their outermost
                        angular grid increased by 1.

Total number of grid points                  ...   392944
Total number of batches                      ...     6154
Average number of points per batch           ...       63
Average number of grid points per atom       ...    11907
Initializing property integral containers    ... done (  0.0 sec)

SHARK setup successfully completed in   3.2 seconds

Maximum memory used throughout the entire STARTUP-calculation: 94.9 MB


           ************************************************************
           *        Program running with 16 parallel MPI-processes    *
           *              working on a common directory               *
           ************************************************************
-------------------------------------------------------------------------------
                                 ORCA GUESS
                   Start orbitals & Density for SCF / CASSCF
-------------------------------------------------------------------------------

------------
SCF SETTINGS
------------
Hamiltonian:
 Density Functional     Method          .... DFT(GTOs)
 Exchange Functional    Exchange        .... B973C
 Correlation Functional Correlation     .... B973C
 Gradients option       PostSCFGGA      .... off
 RI-approximation to the Coulomb term is turned on
   Number of AuxJ basis functions       .... 675


General Settings:
 Integral files         IntName         .... m1_00_Tenofovir-GitHubGFN2-B97-3C-TZ
 Hartree-Fock type      HFTyp           .... RHF
 Total Charge           Charge          ....    0
 Multiplicity           Mult            ....    1
 Number of Electrons    NEL             ....  150
 Basis Dimension        Dim             ....  426
 Nuclear Repulsion      ENuc            ....   1737.0560409297 Eh

Convergence Acceleration:
 AO-DIIS                CNVDIIS         .... on
   Start iteration      DIISMaxIt       ....    12
   Startup error        DIISStart       ....  0.200000
   # of expansion vecs  DIISMaxEq       ....     5
   Bias factor          DIISBfac        ....   1.050
   Max. coefficient     DIISMaxC        ....  10.000
 MO-DIIS                CNVKDIIS        .... off
 Trust-Rad. Augm. Hess. CNVTRAH         .... off
 SOSCF                  CNVSOSCF        .... on
   Start iteration      SOSCFMaxIt      ....   150
   Startup grad/error   SOSCFStart      ....  0.003300
   Hessian update       SOSCFHessUp     .... L-BFGS
 Level Shifting         CNVShift        .... on
   Level shift para.    LevelShift      ....    0.2500
   Turn off err/grad.   ShiftErr        ....    0.0010
 Zerner damping         CNVZerner       .... off
 Static damping         CNVDamp         .... on
   Fraction old density DampFac         ....    0.7000
   Max. Damping (<1)    DampMax         ....    0.9800
   Min. Damping (>=0)   DampMin         ....    0.0000
   Turn off err/grad.   DampErr         ....    0.1000

SCF Procedure:
 Maximum # iterations   MaxIter         ....   800
 SCF integral mode      SCFMode         .... Direct
   Integral package                     .... SHARK and LIBINT hybrid scheme
 Reset frequency        DirectResetFreq ....    20
 Integral Threshold     Thresh          ....  2.500e-11 Eh
 Primitive CutOff       TCut            ....  2.500e-12 Eh

Convergence Tolerance:
 Convergence Check Mode ConvCheckMode   .... Total+1el-Energy
 Convergence forced     ConvForced      .... 0
 Energy Change          TolE            ....  1.000e-08 Eh
 1-El. energy change                    ....  1.000e-05 Eh
 Orbital Gradient       TolG            ....  1.000e-05
 Orbital Rotation angle TolX            ....  1.000e-05
 DIIS Error             TolErr          ....  5.000e-07

--------------------------------
INITIAL GUESS: MINIMAL BASIS EHT
--------------------------------
The minimal basis has 113 functions
EHT matrix was diagonalized
Basis set overlap was calculated now projecting the orbitals
Using GuessMode=FMatrix for the initial guess
C*T matrix was formed
Effective Fockian was calculated
Effective Fockian was diagonalized
Initial density was built
                      ------------------
                      INITIAL GUESS DONE
                      ------------------
             **** ENERGY FILE WAS UPDATED (m1_00_Tenofovir-GitHubGFN2-B97-3C-TZ.en.tmp) ****
Finished Guess after   0.2 sec
Maximum memory used throughout the entire GUESS-calculation: 34.6 MB


           ************************************************************
           *        Program running with 16 parallel MPI-processes    *
           *              working on a common directory               *
           ************************************************************

-------------------------------------------------------------------------------------------
                                      ORCA LEAN-SCF
                              memory conserving SCF solver
-------------------------------------------------------------------------------------------

----------------------------------------D-I-I-S--------------------------------------------
Iteration    Energy (Eh)           Delta-E    RMSDP     MaxDP     DIISErr   Damp  Time(sec)
-------------------------------------------------------------------------------------------
               ***  Starting incremental Fock matrix formation  ***
    1    -1262.8464809782947214     0.00e+00  5.41e-03  3.27e-01  6.38e-01  0.700   0.6
Warning: op=0 Small HOMO/LUMO gap (   0.075) - skipping pre-diagonalization
         Will do a full diagonalization
    2    -1264.3788227331458529    -1.53e+00  3.80e-03  1.46e-01  4.38e-01  0.700   0.7
    3    -1265.1227443894911175    -7.44e-01  2.19e-03  6.57e-02  2.91e-01  0.700   0.6
                               ***Turning on AO-DIIS***
    4    -1265.6297067587322545    -5.07e-01  1.60e-03  8.60e-02  1.91e-01  0.700   0.6
    5    -1265.9901043701795516    -3.60e-01  1.17e-03  6.19e-02  1.31e-01  0.700   0.6
    6    -1266.2431972442748247    -2.53e-01  8.06e-04  3.52e-02  9.18e-02  0.700   0.6
    7    -1266.4217166367300251    -1.79e-01  1.85e-03  6.86e-02  6.50e-02  0.000   0.6
    8    -1266.8359939433191812    -4.14e-01  2.72e-04  1.83e-02  2.82e-02  0.000   0.6
    9    -1266.8382804427903920    -2.29e-03  1.03e-04  5.56e-03  1.38e-02  0.000   0.6
   10    -1266.8384234241514150    -1.43e-04  3.74e-05  1.72e-03  5.78e-03  0.000   0.6
                              *** Initializing SOSCF ***
---------------------------------------S-O-S-C-F--------------------------------------
Iteration    Energy (Eh)           Delta-E    RMSDP     MaxDP     MaxGrad    Time(sec)
--------------------------------------------------------------------------------------
   11    -1266.8385512113252389    -1.28e-04  1.45e-05  5.54e-04  7.89e-04     0.6
               *** Restarting incremental Fock matrix formation ***
   12    -1266.8385573711300367    -6.16e-06  1.79e-05  7.94e-04  8.59e-05     0.7
   13    -1266.8385535741565491     3.80e-06  1.16e-05  3.99e-04  2.48e-04     0.6
   14    -1266.8385580783640307    -4.50e-06  4.23e-06  2.28e-04  4.01e-05     0.6
   15    -1266.8385578502295630     2.28e-07  3.12e-06  1.79e-04  1.03e-04     0.6
   16    -1266.8385581214486137    -2.71e-07  2.02e-06  1.13e-04  1.08e-05     0.6
   17    -1266.8385580786909941     4.28e-08  1.33e-06  7.82e-05  1.98e-05     0.5
   18    -1266.8385581171412468    -3.85e-08  1.69e-06  1.61e-04  6.91e-07     0.5
                  *** Gradient check signals convergence ***

               *****************************************************
               *                     SUCCESS                       *
               *           SCF CONVERGED AFTER  18 CYCLES          *
               *****************************************************

             **** ENERGY FILE WAS UPDATED (m1_00_Tenofovir-GitHubGFN2-B97-3C-TZ.en.tmp) ****

----------------
TOTAL SCF ENERGY
----------------

Total Energy       :      -1266.83855811714125 Eh          -34472.42971 eV

Components:
Nuclear Repulsion  :       1737.05604092972749 Eh           47267.69792 eV
Electronic Energy  :      -3003.89459904686873 Eh          -81740.12763 eV
One Electron Energy:      -5189.82353354190036 Eh         -141222.27795 eV
Two Electron Energy:       2185.92893449503163 Eh           59482.15032 eV

Virial components:
Potential Energy   :      -2529.83160524862751 Eh          -68840.21775 eV
Kinetic Energy     :       1262.99304713148626 Eh           34367.78804 eV
Virial Ratio       :          2.00304476021811

DFT components:
N(Alpha)           :       75.000012968389 electrons
N(Beta)            :       75.000012968389 electrons
N(Total)           :      150.000025936777 electrons
E(XC)              :     -145.835980216592 Eh       

---------------
SCF CONVERGENCE
---------------

  Last Energy change         ...    3.8450e-08  Tolerance :   1.0000e-08
  Last MAX-Density change    ...    1.6086e-04  Tolerance :   1.0000e-07
  Last RMS-Density change    ...    1.6927e-06  Tolerance :   5.0000e-09
  Last DIIS Error            ...    7.8900e-04  Tolerance :   5.0000e-07
  Last Orbital Gradient      ...    6.9140e-07  Tolerance :   1.0000e-05
  Last Orbital Rotation      ...    2.2498e-06  Tolerance :   1.0000e-05


----------------
ORBITAL ENERGIES
----------------

  NO   OCC          E(Eh)            E(eV) 
   0   2.0000     -76.383845     -2078.5101 
   1   2.0000     -18.767753      -510.6965 
   2   2.0000     -18.764428      -510.6061 
   3   2.0000     -18.738136      -509.8906 
   4   2.0000     -18.688462      -508.5389 
   5   2.0000     -14.066535      -382.7699 
   6   2.0000     -14.026310      -381.6753 
   7   2.0000     -14.005073      -381.0974 
   8   2.0000     -13.992259      -380.7487 
   9   2.0000     -13.986600      -380.5947 
  10   2.0000      -9.987357      -271.7698 
  11   2.0000      -9.972630      -271.3691 
  12   2.0000      -9.965900      -271.1859 
  13   2.0000      -9.961954      -271.0785 
  14   2.0000      -9.960822      -271.0477 
  15   2.0000      -9.954346      -270.8715 
  16   2.0000      -9.947747      -270.6919 
  17   2.0000      -9.929773      -270.2029 
  18   2.0000      -9.894616      -269.2462 
  19   2.0000      -6.431241      -175.0030 
  20   2.0000      -4.655011      -126.6693 
  21   2.0000      -4.653614      -126.6313 
  22   2.0000      -4.651643      -126.5777 
  23   2.0000      -0.987934       -26.8831 
  24   2.0000      -0.980468       -26.6799 
  25   2.0000      -0.973580       -26.4925 
  26   2.0000      -0.929328       -25.2883 
  27   2.0000      -0.923538       -25.1307 
  28   2.0000      -0.883412       -24.0389 
  29   2.0000      -0.870184       -23.6789 
  30   2.0000      -0.847033       -23.0489 
  31   2.0000      -0.811343       -22.0778 
  32   2.0000      -0.737700       -20.0738 
  33   2.0000      -0.714418       -19.4403 
  34   2.0000      -0.669222       -18.2105 
  35   2.0000      -0.645743       -17.5716 
  36   2.0000      -0.625575       -17.0228 
  37   2.0000      -0.610913       -16.6238 
  38   2.0000      -0.578011       -15.7285 
  39   2.0000      -0.558943       -15.2096 
  40   2.0000      -0.553100       -15.0506 
  41   2.0000      -0.530068       -14.4239 
  42   2.0000      -0.503971       -13.7137 
  43   2.0000      -0.487371       -13.2620 
  44   2.0000      -0.479028       -13.0350 
  45   2.0000      -0.477061       -12.9815 
  46   2.0000      -0.467823       -12.7301 
  47   2.0000      -0.451216       -12.2782 
  48   2.0000      -0.447839       -12.1863 
  49   2.0000      -0.428150       -11.6505 
  50   2.0000      -0.418588       -11.3904 
  51   2.0000      -0.412374       -11.2213 
  52   2.0000      -0.404193       -10.9987 
  53   2.0000      -0.400025       -10.8852 
  54   2.0000      -0.390785       -10.6338 
  55   2.0000      -0.381347       -10.3770 
  56   2.0000      -0.372319       -10.1313 
  57   2.0000      -0.363411        -9.8889 
  58   2.0000      -0.353442        -9.6177 
  59   2.0000      -0.341304        -9.2873 
  60   2.0000      -0.334514        -9.1026 
  61   2.0000      -0.326204        -8.8765 
  62   2.0000      -0.324533        -8.8310 
  63   2.0000      -0.308269        -8.3884 
  64   2.0000      -0.298496        -8.1225 
  65   2.0000      -0.287187        -7.8148 
  66   2.0000      -0.281009        -7.6466 
  67   2.0000      -0.267471        -7.2783 
  68   2.0000      -0.256756        -6.9867 
  69   2.0000      -0.253361        -6.8943 
  70   2.0000      -0.242535        -6.5997 
  71   2.0000      -0.231791        -6.3074 
  72   2.0000      -0.230538        -6.2733 
  73   2.0000      -0.218564        -5.9474 
  74   2.0000      -0.208702        -5.6791 
  75   0.0000      -0.063154        -1.7185 
  76   0.0000      -0.038597        -1.0503 
  77   0.0000      -0.009066        -0.2467 
  78   0.0000       0.011427         0.3109 
  79   0.0000       0.019186         0.5221 
  80   0.0000       0.021459         0.5839 
  81   0.0000       0.035513         0.9664 
  82   0.0000       0.053510         1.4561 
  83   0.0000       0.056203         1.5294 
  84   0.0000       0.065452         1.7810 
  85   0.0000       0.065685         1.7874 
*Only the first 10 virtual orbitals were printed.

                    ********************************
                    * MULLIKEN POPULATION ANALYSIS *
                    ********************************

-----------------------
MULLIKEN ATOMIC CHARGES
-----------------------
   0 P :    1.087344
   1 O :   -0.584187
   2 O :   -0.605354
   3 H :    0.437993
   4 O :   -0.706247
   5 H :    0.462330
   6 C :   -0.503018
   7 O :   -0.209789
   8 C :   -0.034967
   9 C :   -0.510084
  10 H :    0.163788
  11 H :    0.179953
  12 H :    0.202160
  13 H :    0.205255
  14 C :   -0.494728
  15 N :    0.097818
  16 C :   -0.064196
  17 N :   -0.279040
  18 C :   -0.051856
  19 N :   -0.152520
  20 C :    0.093253
  21 N :   -0.626654
  22 H :    0.356605
  23 H :    0.366088
  24 C :    0.102544
  25 N :   -0.109028
  26 C :   -0.113492
  27 H :    0.193062
  28 H :    0.174934
  29 H :    0.301629
  30 H :    0.202181
  31 H :    0.207966
  32 H :    0.210258
Sum of atomic charges:   -0.0000000

--------------------------------
MULLIKEN REDUCED ORBITAL CHARGES
--------------------------------
  0 P s       :     5.065779  s :     5.065779
      pz      :     2.829068  p :     8.327302
      px      :     2.748701
      py      :     2.749532
      dz2     :     0.107582  d :     0.519575
      dxz     :     0.100330
      dyz     :     0.105340
      dx2y2   :     0.077174
      dxy     :     0.129148

  1 O s       :     3.852156  s :     3.852156
      pz      :     1.495752  p :     4.707053
      px      :     1.651953
      py      :     1.559348
      dz2     :     0.005362  d :     0.024978
      dxz     :     0.004363
      dyz     :     0.006715
      dx2y2   :     0.003967
      dxy     :     0.004571

  2 O s       :     3.767688  s :     3.767688
      pz      :     1.811098  p :     4.825318
      px      :     1.370737
      py      :     1.643482
      dz2     :     0.002370  d :     0.012349
      dxz     :     0.002676
      dyz     :     0.007083
      dx2y2   :    -0.009072
      dxy     :     0.009291

  3 H s       :     0.562007  s :     0.562007

  4 O s       :     3.808587  s :     3.808587
      pz      :     1.665696  p :     4.854149
      px      :     1.416340
      py      :     1.772113
      dz2     :     0.007954  d :     0.043512
      dxz     :     0.014115
      dyz     :     0.009920
      dx2y2   :     0.003189
      dxy     :     0.008334

  5 H s       :     0.537670  s :     0.537670

  6 C s       :     3.310220  s :     3.310220
      pz      :     1.131912  p :     3.133917
      px      :     0.886880
      py      :     1.115125
      dz2     :     0.006219  d :     0.058881
      dxz     :     0.011897
      dyz     :     0.012409
      dx2y2   :     0.011827
      dxy     :     0.016529

  7 O s       :     3.740935  s :     3.740935
      pz      :     1.644772  p :     4.486320
      px      :     1.450964
      py      :     1.390584
      dz2     :    -0.000643  d :    -0.017466
      dxz     :    -0.005200
      dyz     :     0.011124
      dx2y2   :    -0.017932
      dxy     :    -0.004815

  8 C s       :     3.201507  s :     3.201507
      pz      :     0.847767  p :     2.763777
      px      :     1.102982
      py      :     0.813028
      dz2     :     0.015482  d :     0.069683
      dxz     :     0.010530
      dyz     :     0.018473
      dx2y2   :     0.016116
      dxy     :     0.009082

  9 C s       :     3.261272  s :     3.261272
      pz      :     1.093796  p :     3.212482
      px      :     1.116459
      py      :     1.002228
      dz2     :     0.005081  d :     0.036330
      dxz     :     0.006830
      dyz     :     0.010478
      dx2y2   :     0.010019
      dxy     :     0.003922

 10 H s       :     0.836212  s :     0.836212

 11 H s       :     0.820047  s :     0.820047

 12 H s       :     0.797840  s :     0.797840

 13 H s       :     0.794745  s :     0.794745

 14 C s       :     3.342687  s :     3.342687
      pz      :     0.995246  p :     3.097243
      px      :     0.842355
      py      :     1.259643
      dz2     :     0.007563  d :     0.054797
      dxz     :     0.012502
      dyz     :     0.012257
      dx2y2   :     0.013308
      dxy     :     0.009167

 15 N s       :     3.231455  s :     3.231455
      pz      :     1.479967  p :     3.614162
      px      :     1.040230
      py      :     1.093964
      dz2     :     0.004751  d :     0.056566
      dxz     :     0.008438
      dyz     :     0.009083
      dx2y2   :     0.015928
      dxy     :     0.018366

 16 C s       :     3.210582  s :     3.210582
      pz      :     0.980003  p :     2.774156
      px      :     0.908391
      py      :     0.885761
      dz2     :     0.006693  d :     0.079458
      dxz     :     0.008620
      dyz     :     0.016502
      dx2y2   :     0.026120
      dxy     :     0.021524

 17 N s       :     3.457298  s :     3.457298
      pz      :     1.285468  p :     3.777104
      px      :     1.453690
      py      :     1.037946
      dz2     :     0.004879  d :     0.044637
      dxz     :     0.006305
      dyz     :     0.007260
      dx2y2   :     0.009304
      dxy     :     0.016890

 18 C s       :     3.172067  s :     3.172067
      pz      :     0.901697  p :     2.801875
      px      :     0.902691
      py      :     0.997487
      dz2     :     0.006746  d :     0.077913
      dxz     :     0.013900
      dyz     :     0.006034
      dx2y2   :     0.023237
      dxy     :     0.027997

 19 N s       :     3.459050  s :     3.459050
      pz      :     1.249215  p :     3.648993
      px      :     1.101181
      py      :     1.298596
      dz2     :     0.005435  d :     0.044477
      dxz     :     0.007282
      dyz     :     0.005894
      dx2y2   :     0.014593
      dxy     :     0.011272

 20 C s       :     3.092497  s :     3.092497
      pz      :     0.899666  p :     2.728403
      px      :     0.884936
      py      :     0.943800
      dz2     :     0.006259  d :     0.085847
      dxz     :     0.018525
      dyz     :     0.010304
      dx2y2   :     0.028078
      dxy     :     0.022680

 21 N s       :     3.414476  s :     3.414476
      pz      :     1.682261  p :     4.180645
      px      :     1.215618
      py      :     1.282765
      dz2     :     0.004399  d :     0.031534
      dxz     :     0.004587
      dyz     :     0.001460
      dx2y2   :     0.008644
      dxy     :     0.012444

 22 H s       :     0.643395  s :     0.643395

 23 H s       :     0.633912  s :     0.633912

 24 C s       :     2.945950  s :     2.945950
      pz      :     1.080474  p :     2.889189
      px      :     1.002524
      py      :     0.806191
      dz2     :     0.004917  d :     0.062316
      dxz     :     0.006007
      dyz     :     0.011532
      dx2y2   :     0.021596
      dxy     :     0.018265

 25 N s       :     3.502013  s :     3.502013
      pz      :     1.180478  p :     3.557273
      px      :     1.331404
      py      :     1.045391
      dz2     :     0.005815  d :     0.049742
      dxz     :     0.009499
      dyz     :     0.006402
      dx2y2   :     0.014724
      dxy     :     0.013302

 26 C s       :     3.187842  s :     3.187842
      pz      :     0.998470  p :     2.853294
      px      :     0.856592
      py      :     0.998232
      dz2     :     0.005615  d :     0.072356
      dxz     :     0.014204
      dyz     :     0.006671
      dx2y2   :     0.023404
      dxy     :     0.022462

 27 H s       :     0.806938  s :     0.806938

 28 H s       :     0.825066  s :     0.825066

 29 H s       :     0.698371  s :     0.698371

 30 H s       :     0.797819  s :     0.797819

 31 H s       :     0.792034  s :     0.792034

 32 H s       :     0.789742  s :     0.789742



                     *******************************
                     * LOEWDIN POPULATION ANALYSIS *
                     *******************************

----------------------
LOEWDIN ATOMIC CHARGES
----------------------
   0 P :    1.660965
   1 O :   -0.837786
   2 O :   -0.844052
   3 H :    0.367094
   4 O :   -0.766126
   5 H :    0.366189
   6 C :   -0.095365
   7 O :   -0.848943
   8 C :    0.072209
   9 C :   -0.381945
  10 H :    0.159291
  11 H :    0.168674
  12 H :    0.170911
  13 H :    0.201587
  14 C :   -0.148358
  15 N :   -0.067407
  16 C :    0.091940
  17 N :   -0.186285
  18 C :    0.014746
  19 N :   -0.223559
  20 C :    0.101634
  21 N :   -0.394590
  22 H :    0.295622
  23 H :    0.299312
  24 C :   -0.058447
  25 N :   -0.198998
  26 C :   -0.019319
  27 H :    0.171787
  28 H :    0.161752
  29 H :    0.204329
  30 H :    0.176296
  31 H :    0.203061
  32 H :    0.183783

-------------------------------
LOEWDIN REDUCED ORBITAL CHARGES
-------------------------------
  0 P s       :     4.557823  s :     4.557823
      pz      :     2.752252  p :     8.116933
      px      :     2.659817
      py      :     2.704864
      dz2     :     0.133218  d :     0.664279
      dxz     :     0.124693
      dyz     :     0.142832
      dx2y2   :     0.089747
      dxy     :     0.173789

  1 O s       :     3.681235  s :     3.681235
      pz      :     1.616902  p :     4.911884
      px      :     1.664213
      py      :     1.630769
      dz2     :     0.054149  d :     0.244667
      dxz     :     0.041323
      dyz     :     0.063488
      dx2y2   :     0.035416
      dxy     :     0.050291

  2 O s       :     3.595823  s :     3.595823
      pz      :     1.801396  p :     4.943258
      px      :     1.453834
      py      :     1.688028
      dz2     :     0.042813  d :     0.304971
      dxz     :     0.047143
      dyz     :     0.043629
      dx2y2   :     0.091732
      dxy     :     0.079654

  3 H s       :     0.632906  s :     0.632906

  4 O s       :     3.600711  s :     3.600711
      pz      :     1.657685  p :     4.908795
      px      :     1.478919
      py      :     1.772191
      dz2     :     0.038370  d :     0.256619
      dxz     :     0.060800
      dyz     :     0.044566
      dx2y2   :     0.051411
      dxy     :     0.061471

  5 H s       :     0.633811  s :     0.633811

  6 C s       :     2.919402  s :     2.919402
      pz      :     1.086267  p :     3.059950
      px      :     0.935569
      py      :     1.038113
      dz2     :     0.013071  d :     0.116013
      dxz     :     0.023051
      dyz     :     0.022114
      dx2y2   :     0.024543
      dxy     :     0.033235

  7 O s       :     3.479997  s :     3.479997
      pz      :     1.678658  p :     4.746078
      px      :     1.560698
      py      :     1.506722
      dz2     :     0.098197  d :     0.622868
      dxz     :     0.109796
      dyz     :     0.123880
      dx2y2   :     0.147784
      dxy     :     0.143210

  8 C s       :     2.831743  s :     2.831743
      pz      :     0.960364  p :     2.954438
      px      :     1.067903
      py      :     0.926171
      dz2     :     0.030932  d :     0.141610
      dxz     :     0.021325
      dyz     :     0.040277
      dx2y2   :     0.030620
      dxy     :     0.018457

  9 C s       :     2.975219  s :     2.975219
      pz      :     1.132603  p :     3.347311
      px      :     1.141255
      py      :     1.073453
      dz2     :     0.007849  d :     0.059415
      dxz     :     0.010846
      dyz     :     0.017608
      dx2y2   :     0.016218
      dxy     :     0.006894

 10 H s       :     0.840709  s :     0.840709

 11 H s       :     0.831326  s :     0.831326

 12 H s       :     0.829089  s :     0.829089

 13 H s       :     0.798413  s :     0.798413

 14 C s       :     2.908348  s :     2.908348
      pz      :     1.079585  p :     3.138703
      px      :     0.924120
      py      :     1.134999
      dz2     :     0.013775  d :     0.101306
      dxz     :     0.024726
      dyz     :     0.019764
      dx2y2   :     0.025856
      dxy     :     0.017185

 15 N s       :     3.058724  s :     3.058724
      pz      :     1.440350  p :     3.896035
      px      :     1.220995
      py      :     1.234690
      dz2     :     0.009011  d :     0.112649
      dxz     :     0.014736
      dyz     :     0.017191
      dx2y2   :     0.032516
      dxy     :     0.039195

 16 C s       :     2.792446  s :     2.792446
      pz      :     0.970476  p :     2.944441
      px      :     1.031356
      py      :     0.942609
      dz2     :     0.014440  d :     0.171174
      dxz     :     0.016254
      dyz     :     0.031591
      dx2y2   :     0.059592
      dxy     :     0.049296

 17 N s       :     3.189938  s :     3.189938
      pz      :     1.275410  p :     3.911482
      px      :     1.452326
      py      :     1.183746
      dz2     :     0.009267  d :     0.084865
      dxz     :     0.008287
      dyz     :     0.015222
      dx2y2   :     0.019121
      dxy     :     0.032968

 18 C s       :     2.858126  s :     2.858126
      pz      :     0.906608  p :     2.964194
      px      :     1.017619
      py      :     1.039968
      dz2     :     0.013013  d :     0.162933
      dxz     :     0.027879
      dyz     :     0.011141
      dx2y2   :     0.050219
      dxy     :     0.060682

 19 N s       :     3.211191  s :     3.211191
      pz      :     1.255534  p :     3.930431
      px      :     1.259658
      py      :     1.415239
      dz2     :     0.009616  d :     0.081937
      dxz     :     0.013239
      dyz     :     0.008264
      dx2y2   :     0.028644
      dxy     :     0.022174

 20 C s       :     2.806879  s :     2.806879
      pz      :     0.898646  p :     2.910137
      px      :     0.971423
      py      :     1.040067
      dz2     :     0.013811  d :     0.181350
      dxz     :     0.034353
      dyz     :     0.019144
      dx2y2   :     0.065247
      dxy     :     0.048795

 21 N s       :     3.166174  s :     3.166174
      pz      :     1.656451  p :     4.174035
      px      :     1.245510
      py      :     1.272073
      dz2     :     0.005189  d :     0.054381
      dxz     :     0.008669
      dyz     :     0.001929
      dx2y2   :     0.016413
      dxy     :     0.022180

 22 H s       :     0.704378  s :     0.704378

 23 H s       :     0.700688  s :     0.700688

 24 C s       :     2.823658  s :     2.823658
      pz      :     1.067183  p :     3.103044
      px      :     1.033292
      py      :     1.002569
      dz2     :     0.010172  d :     0.131746
      dxz     :     0.011046
      dyz     :     0.020864
      dx2y2   :     0.049289
      dxy     :     0.040375

 25 N s       :     3.236209  s :     3.236209
      pz      :     1.197838  p :     3.873093
      px      :     1.467457
      py      :     1.207797
      dz2     :     0.010652  d :     0.089696
      dxz     :     0.012882
      dyz     :     0.013504
      dx2y2   :     0.027021
      dxy     :     0.025636

 26 C s       :     2.867523  s :     2.867523
      pz      :     0.997459  p :     3.002381
      px      :     0.962880
      py      :     1.042041
      dz2     :     0.011779  d :     0.149415
      dxz     :     0.028224
      dyz     :     0.010363
      dx2y2   :     0.048395
      dxy     :     0.050654

 27 H s       :     0.828213  s :     0.828213

 28 H s       :     0.838248  s :     0.838248

 29 H s       :     0.795671  s :     0.795671

 30 H s       :     0.823704  s :     0.823704

 31 H s       :     0.796939  s :     0.796939

 32 H s       :     0.816217  s :     0.816217



                      *****************************
                      * MAYER POPULATION ANALYSIS *
                      *****************************

  NA   - Mulliken gross atomic population
  ZA   - Total nuclear charge
  QA   - Mulliken gross atomic charge
  VA   - Mayer's total valence
  BVA  - Mayer's bonded valence
  FA   - Mayer's free valence

  ATOM       NA         ZA         QA         VA         BVA        FA
  0 P     13.9127    15.0000     1.0873     4.8621     4.8621    -0.0000
  1 O      8.5842     8.0000    -0.5842     1.8612     1.8612    -0.0000
  2 O      8.6054     8.0000    -0.6054     1.6687     1.6687     0.0000
  3 H      0.5620     1.0000     0.4380     0.8080     0.8080    -0.0000
  4 O      8.7062     8.0000    -0.7062     1.8051     1.8051     0.0000
  5 H      0.5377     1.0000     0.4623     0.7691     0.7691    -0.0000
  6 C      6.5030     6.0000    -0.5030     3.7083     3.7083    -0.0000
  7 O      8.2098     8.0000    -0.2098     1.7080     1.7080    -0.0000
  8 C      6.0350     6.0000    -0.0350     3.5276     3.5276    -0.0000
  9 C      6.5101     6.0000    -0.5101     3.7926     3.7926     0.0000
 10 H      0.8362     1.0000     0.1638     0.9488     0.9488     0.0000
 11 H      0.8200     1.0000     0.1800     0.9532     0.9532    -0.0000
 12 H      0.7978     1.0000     0.2022     0.9476     0.9476    -0.0000
 13 H      0.7947     1.0000     0.2053     0.9643     0.9643    -0.0000
 14 C      6.4947     6.0000    -0.4947     3.5937     3.5937    -0.0000
 15 N      6.9022     7.0000     0.0978     3.1619     3.1619    -0.0000
 16 C      6.0642     6.0000    -0.0642     4.1626     4.1626    -0.0000
 17 N      7.2790     7.0000    -0.2790     2.9878     2.9878    -0.0000
 18 C      6.0519     6.0000    -0.0519     4.0541     4.0541    -0.0000
 19 N      7.1525     7.0000    -0.1525     3.1441     3.1441     0.0000
 20 C      5.9067     6.0000     0.0933     3.9542     3.9542    -0.0000
 21 N      7.6267     7.0000    -0.6267     3.0333     3.0333    -0.0000
 22 H      0.6434     1.0000     0.3566     0.8654     0.8654    -0.0000
 23 H      0.6339     1.0000     0.3661     0.8560     0.8560    -0.0000
 24 C      5.8975     6.0000     0.1025     3.8300     3.8300    -0.0000
 25 N      7.1090     7.0000    -0.1090     3.0806     3.0806     0.0000
 26 C      6.1135     6.0000    -0.1135     4.0314     4.0314    -0.0000
 27 H      0.8069     1.0000     0.1931     0.9480     0.9480     0.0000
 28 H      0.8251     1.0000     0.1749     0.9552     0.9552     0.0000
 29 H      0.6984     1.0000     0.3016     0.9173     0.9173    -0.0000
 30 H      0.7978     1.0000     0.2022     0.9401     0.9401     0.0000
 31 H      0.7920     1.0000     0.2080     0.9510     0.9510    -0.0000
 32 H      0.7897     1.0000     0.2103     0.9276     0.9276    -0.0000

  Mayer bond orders larger than 0.100000
B(  0-P ,  1-O ) :   1.7442 B(  0-P ,  2-O ) :   1.1473 B(  0-P ,  4-O ) :   1.0323 
B(  0-P ,  6-C ) :   0.8442 B(  2-O ,  3-H ) :   0.5744 B(  3-H , 17-N ) :   0.2008 
B(  4-O ,  5-H ) :   0.7322 B(  6-C ,  7-O ) :   0.8691 B(  6-C , 31-H ) :   0.9317 
B(  6-C , 32-H ) :   0.9232 B(  7-O ,  8-C ) :   0.8613 B(  8-C ,  9-C ) :   0.9437 
B(  8-C , 13-H ) :   0.9158 B(  8-C , 14-C ) :   0.8590 B(  9-C , 10-H ) :   0.9536 
B(  9-C , 11-H ) :   0.9489 B(  9-C , 12-H ) :   0.9664 B( 14-C , 15-N ) :   0.7855 
B( 14-C , 29-H ) :   0.9064 B( 14-C , 30-H ) :   0.9412 B( 15-N , 16-C ) :   1.3108 
B( 15-N , 24-C ) :  -0.1045 B( 15-N , 26-C ) :   1.1679 B( 16-C , 17-N ) :   1.3179 
B( 16-C , 24-C ) :   1.2965 B( 17-N , 18-C ) :   1.4166 B( 18-C , 19-N ) :   1.5358 
B( 18-C , 28-H ) :   0.9513 B( 19-N , 20-C ) :   1.4948 B( 20-C , 21-N ) :   1.2260 
B( 20-C , 24-C ) :   1.1294 B( 21-N , 22-H ) :   0.8125 B( 21-N , 23-H ) :   0.8237 
B( 24-C , 25-N ) :   1.3208 B( 25-N , 26-C ) :   1.7091 B( 26-C , 27-H ) :   0.9352 



------------------
[...]
 30:    534.01   0.003007   15.20  0.001757  (-0.027633  0.016136  0.027080)
 31:    536.45   0.001218    6.15  0.000708  ( 0.013659  0.022281  0.005042)
 32:    537.92   0.000478    2.41  0.000277  ( 0.015935 -0.003542  0.003265)
 33:    552.44   0.000606    3.06  0.000342  ( 0.015545 -0.009736  0.002408)
 34:    584.88   0.003199   16.17  0.001707  ( 0.040532 -0.006270 -0.004962)
 35:    636.37   0.001475    7.45  0.000723  ( 0.010764  0.012580  0.021196)
 36:    657.36   0.002936   14.84  0.001394  (-0.006279  0.003071 -0.036674)
 37:    678.93   0.001964    9.92  0.000903  (-0.019774  0.005627 -0.021908)
 38:    704.29   0.000582    2.94  0.000258  ( 0.004825  0.003178  0.014976)
 39:    732.67   0.010694   54.04  0.004555  (-0.066113 -0.013479  0.001538)
 40:    740.52   0.001444    7.30  0.000608  (-0.017618 -0.003141  0.016976)
 41:    761.14   0.001161    5.87  0.000476  ( 0.002114  0.003973  0.021350)
 42:    808.48   0.000351    1.77  0.000135  (-0.008509  0.007934  0.000206)
 43:    816.09   0.001370    6.92  0.000524  (-0.002867 -0.006643 -0.021715)
 44:    834.35   0.055613  281.05  0.020801  (-0.116083  0.085587  0.000311)
 45:    892.43   0.006005   30.35  0.002100  ( 0.042406 -0.010557 -0.013787)
 46:    898.87   0.005501   27.80  0.001910  (-0.042570 -0.008607 -0.004843)
 47:    911.00   0.002865   14.48  0.000981  (-0.028119  0.008743 -0.010691)
 48:    912.44   0.009486   47.94  0.003244  ( 0.015877 -0.005164 -0.054458)
 49:    920.86   0.002218   11.21  0.000752  ( 0.020749  0.008883  0.015567)
 50:    938.70   0.000632    3.20  0.000210  ( 0.013977  0.003850 -0.000021)
 51:    949.27   0.036787  185.91  0.012093  ( 0.092537  0.046144  0.037430)
 52:   1005.79   0.002495   12.61  0.000774  ( 0.024165  0.009226 -0.010252)
 53:   1033.45   0.003499   17.68  0.001057  (-0.013208  0.029597  0.002490)
 54:   1058.67   0.008392   42.41  0.002474  (-0.037040  0.031015 -0.011828)
 55:   1074.79   0.001714    8.66  0.000498  (-0.021242 -0.005102  0.004528)
 56:   1087.78   0.000420    2.12  0.000120  (-0.000062 -0.010970 -0.000157)
 57:   1103.33   0.027245  137.69  0.007706  (-0.076920  0.036759 -0.020928)
 58:   1145.34   0.000816    4.12  0.000222  (-0.000277 -0.006999 -0.013159)
 59:   1194.87   0.001455    7.35  0.000380  (-0.012761  0.013971  0.004694)
 60:   1215.88   0.004759   24.05  0.001221  (-0.030501 -0.003972  0.016591)
 61:   1224.77   0.026219  132.50  0.006681  (-0.002452 -0.052768  0.062370)
 62:   1266.20   0.008846   44.70  0.002180  (-0.039863 -0.021072  0.012129)
 63:   1275.04   0.013503   68.24  0.003305  (-0.003818 -0.047694  0.031868)
 64:   1280.70   0.001438    7.27  0.000351  ( 0.000775  0.001751 -0.018624)
 65:   1315.91   0.003280   16.58  0.000778  (-0.002974 -0.025016  0.011967)
 66:   1324.28   0.006986   35.30  0.001646  (-0.028123 -0.028335  0.007237)
 67:   1340.59   0.002147   10.85  0.000500  (-0.021114 -0.004712 -0.005641)
 68:   1353.30   0.008790   44.42  0.002027  (-0.041467 -0.017530  0.000477)
 69:   1360.25   0.011042   55.80  0.002533  (-0.049445  0.008660  0.003668)
 70:   1381.13   0.005980   30.22  0.001351  (-0.007047 -0.035989  0.002511)
 71:   1385.26   0.006222   31.44  0.001402  (-0.035173 -0.012823  0.000370)
 72:   1393.49   0.009424   47.62  0.002110  (-0.045824 -0.003239 -0.000157)
 73:   1411.10   0.006397   32.33  0.001415  (-0.026346  0.024002  0.012017)
 74:   1416.90   0.002031   10.26  0.000447  (-0.006603 -0.019547 -0.004643)
 75:   1440.09   0.009016   45.56  0.001954  ( 0.003702 -0.044007  0.001849)
 76:   1462.45   0.001747    8.83  0.000373  ( 0.014935  0.003941  0.011582)
 77:   1488.03   0.006940   35.07  0.001456  (-0.036644 -0.006989 -0.007991)
 78:   1492.62   0.001516    7.66  0.000317  (-0.013577  0.011513 -0.000295)
 79:   1500.17   0.004400   22.24  0.000915  (-0.026909  0.007331  0.011727)
 80:   1507.31   0.002454   12.40  0.000508  (-0.004486  0.009158  0.020104)
 81:   1521.08   0.002038   10.30  0.000418  (-0.017968 -0.006255  0.007493)
 82:   1600.61   0.019738   99.75  0.003848  (-0.046954  0.040540  0.000018)
 83:   1612.47   0.020908  105.66  0.004046  (-0.044111 -0.043196  0.015317)
 84:   1659.84   0.137629  695.52  0.025875  (-0.158270 -0.023443  0.016628)
 85:   2665.63   0.579636  2929.24  0.067858  (-0.258635  0.029410 -0.010029)
 86:   2968.06   0.008822   44.58  0.000928  (-0.026883 -0.004784 -0.013491)
 87:   3004.74   0.003015   15.24  0.000313  (-0.017101 -0.002368  0.003885)
 88:   3006.23   0.003523   17.81  0.000366  (-0.004001  0.018129  0.004589)
 89:   3038.96   0.004821   24.36  0.000495  (-0.004558 -0.017700  0.012689)
 90:   3069.94   0.002073   10.48  0.000211  ( 0.000161 -0.011348  0.009050)
 91:   3079.34   0.005117   25.86  0.000519  ( 0.000149  0.011667 -0.019557)
 92:   3091.43   0.006524   32.97  0.000659  ( 0.022616  0.010823  0.005474)
 93:   3107.39   0.000975    4.93  0.000098  (-0.008914 -0.003711  0.002163)
 94:   3136.06   0.003503   17.70  0.000349  (-0.012466  0.013897 -0.000153)
 95:   3198.52   0.000287    1.45  0.000028  (-0.001445 -0.004942  0.001208)
 96:   3552.43   0.017260   87.22  0.001516  (-0.038318 -0.006588  0.002131)
 97:   3681.51   0.008332   42.10  0.000706  ( 0.002494 -0.026184  0.003791)
 98:   3763.56   0.019393   98.00  0.001608  (-0.037350  0.005648  0.013456)

* The epsilon (eps) is given for a Dirac delta lineshape.
** The dipole moment derivative (T) already includes vibrational overlap.

The first frequency considered to be a vibration is 6
The total number of vibrations considered is 93


--------------------------
THERMOCHEMISTRY AT 298.15K
--------------------------

Temperature         ...   298.15 K
Pressure            ...     1.00 atm
Total Mass          ...   287.22 AMU
Quasi RRHO          ...     True
Cut-Off Frequency   ...     1.00 cm^-1

Throughout the following assumptions are being made:
  (1) The electronic state is orbitally nondegenerate
  (2) There are no thermally accessible electronically excited states
  (3) Hindered rotations indicated by low frequency modes are not
      treated as such but are treated as vibrations and this may
      cause some error
  (4) All equations used are the standard statistical mechanics
      equations for an ideal gas
  (5) All vibrations are strictly harmonic

freq.      36.72  E(vib)   ...       0.54 
freq.      39.14  E(vib)   ...       0.54 
freq.      67.82  E(vib)   ...       0.50 
freq.      96.16  E(vib)   ...       0.47 
freq.     102.31  E(vib)   ...       0.46 
freq.     119.59  E(vib)   ...       0.44 
freq.     132.72  E(vib)   ...       0.42 
freq.     155.66  E(vib)   ...       0.40 
freq.     190.81  E(vib)   ...       0.36 
freq.     199.69  E(vib)   ...       0.35 
freq.     212.54  E(vib)   ...       0.34 
freq.     249.14  E(vib)   ...       0.31 
freq.     256.41  E(vib)   ...       0.30 
freq.     269.38  E(vib)   ...       0.29 
freq.     281.12  E(vib)   ...       0.28 
freq.     289.04  E(vib)   ...       0.27 
freq.     302.19  E(vib)   ...       0.26 
freq.     321.62  E(vib)   ...       0.25 
freq.     350.42  E(vib)   ...       0.23 
freq.     363.10  E(vib)   ...       0.22 
freq.     390.97  E(vib)   ...       0.20 
freq.     411.54  E(vib)   ...       0.19 
freq.     443.54  E(vib)   ...       0.17 
freq.     505.18  E(vib)   ...       0.14 
freq.     534.01  E(vib)   ...       0.13 
freq.     536.45  E(vib)   ...       0.12 
freq.     537.92  E(vib)   ...       0.12 
freq.     552.44  E(vib)   ...       0.12 
freq.     584.88  E(vib)   ...       0.11 
freq.     636.37  E(vib)   ...       0.09 
freq.     657.36  E(vib)   ...       0.08 
freq.     678.93  E(vib)   ...       0.08 
freq.     704.29  E(vib)   ...       0.07 
freq.     732.67  E(vib)   ...       0.06 
freq.     740.52  E(vib)   ...       0.06 
freq.     761.14  E(vib)   ...       0.06 
freq.     808.48  E(vib)   ...       0.05 
freq.     816.09  E(vib)   ...       0.05 
freq.     834.35  E(vib)   ...       0.04 
freq.     892.43  E(vib)   ...       0.03 
freq.     898.87  E(vib)   ...       0.03 
freq.     911.00  E(vib)   ...       0.03 
freq.     912.44  E(vib)   ...       0.03 
freq.     920.86  E(vib)   ...       0.03 
freq.     938.70  E(vib)   ...       0.03 
freq.     949.27  E(vib)   ...       0.03 
freq.    1005.79  E(vib)   ...       0.02 
freq.    1033.45  E(vib)   ...       0.02 
freq.    1058.67  E(vib)   ...       0.02 
freq.    1074.79  E(vib)   ...       0.02 
freq.    1087.78  E(vib)   ...       0.02 
freq.    1103.33  E(vib)   ...       0.02 
freq.    1145.34  E(vib)   ...       0.01 
freq.    1194.87  E(vib)   ...       0.01 
freq.    1215.88  E(vib)   ...       0.01 
freq.    1224.77  E(vib)   ...       0.01 
freq.    1266.20  E(vib)   ...       0.01 
freq.    1275.04  E(vib)   ...       0.01 
freq.    1280.70  E(vib)   ...       0.01 
freq.    1315.91  E(vib)   ...       0.01 
freq.    1324.28  E(vib)   ...       0.01 
freq.    1340.59  E(vib)   ...       0.01 
freq.    1353.30  E(vib)   ...       0.01 
freq.    1360.25  E(vib)   ...       0.01 
freq.    1381.13  E(vib)   ...       0.01 
freq.    1385.26  E(vib)   ...       0.00 
freq.    1393.49  E(vib)   ...       0.00 
freq.    1411.10  E(vib)   ...       0.00 
freq.    1416.90  E(vib)   ...       0.00 
freq.    1440.09  E(vib)   ...       0.00 
freq.    1462.45  E(vib)   ...       0.00 
freq.    1488.03  E(vib)   ...       0.00 
freq.    1492.62  E(vib)   ...       0.00 
freq.    1500.17  E(vib)   ...       0.00 
freq.    1507.31  E(vib)   ...       0.00 
freq.    1521.08  E(vib)   ...       0.00 
freq.    1600.61  E(vib)   ...       0.00 
freq.    1612.47  E(vib)   ...       0.00 
freq.    1659.84  E(vib)   ...       0.00 
freq.    2665.63  E(vib)   ...       0.00 
freq.    2968.06  E(vib)   ...       0.00 
freq.    3004.74  E(vib)   ...       0.00 
freq.    3006.23  E(vib)   ...       0.00 
freq.    3038.96  E(vib)   ...       0.00 
freq.    3069.94  E(vib)   ...       0.00 
freq.    3079.34  E(vib)   ...       0.00 
freq.    3091.43  E(vib)   ...       0.00 
freq.    3107.39  E(vib)   ...       0.00 
freq.    3136.06  E(vib)   ...       0.00 
freq.    3198.52  E(vib)   ...       0.00 
freq.    3552.43  E(vib)   ...       0.00 
freq.    3681.51  E(vib)   ...       0.00 
freq.    3763.56  E(vib)   ...       0.00 

------------
INNER ENERGY
------------

The inner energy is: U= E(el) + E(ZPE) + E(vib) + E(rot) + E(trans)
    E(el)   - is the total energy from the electronic structure calculation
              = E(kin-el) + E(nuc-el) + E(el-el) + E(nuc-nuc)
    E(ZPE)  - the the zero temperature vibrational energy from the frequency calculation
    E(vib)  - the the finite temperature correction to E(ZPE) due to population
              of excited vibrational states
    E(rot)  - is the rotational thermal energy
    E(trans)- is the translational thermal energy

Summary of contributions to the inner energy U:
Electronic energy                ...  -1267.04473684 Eh
Zero point energy                ...      0.25201910 Eh     158.14 kcal/mol
Thermal vibrational correction   ...      0.01533512 Eh       9.62 kcal/mol
Thermal rotational correction    ...      0.00141627 Eh       0.89 kcal/mol
Thermal translational correction ...      0.00141627 Eh       0.89 kcal/mol
-----------------------------------------------------------------------
Total thermal energy                  -1266.77455008 Eh


Summary of corrections to the electronic energy:
(perhaps to be used in another calculation)
Total thermal correction                  0.01816766 Eh      11.40 kcal/mol
Non-thermal (ZPE) correction              0.25201910 Eh     158.14 kcal/mol
-----------------------------------------------------------------------
Total correction                          0.27018676 Eh     169.54 kcal/mol


--------
ENTHALPY
--------

The enthalpy is H = U + kB*T
                kB is Boltzmann's constant
Total thermal energy              ...  -1266.77455008 Eh 
Thermal Enthalpy correction       ...      0.00094421 Eh       0.59 kcal/mol
-----------------------------------------------------------------------
Total Enthalpy                    ...  -1266.77360588 Eh


Note: Only C1 symmetry has been detected, increase convergence thresholds 
      if your molecule has a higher symmetry. Symmetry factor of 1.0 is   
      used for the rotational entropy correction. 
 

Note: Rotational entropy computed according to Herzberg 
Infrared and Raman Spectra, Chapter V,1, Van Nostrand Reinhold, 1945 
Point Group:  C1, Symmetry Number:   1  
Rotational constants in cm-1:     0.020368     0.008086     0.006405 

Vibrational entropy computed according to the QRRHO of S. Grimme
Chem.Eur.J. 2012 18 9955 using a reference frequency of 100.0 cm-1


-------
ENTROPY
-------

The entropy contributions are T*S = T*(S(el)+S(vib)+S(rot)+S(trans))
     S(el)   - electronic entropy
     S(vib)  - vibrational entropy
     S(rot)  - rotational entropy
     S(trans)- translational entropy
The entropies will be listed as multiplied by the temperature to get
units of energy

Electronic entropy                ...      0.00000000 Eh      0.00 kcal/mol
Vibrational entropy               ...      0.02661992 Eh     16.70 kcal/mol
Rotational entropy                ...      0.01600777 Eh     10.05 kcal/mol
Translational entropy             ...      0.02036550 Eh     12.78 kcal/mol
-----------------------------------------------------------------------
Final entropy term                ...      0.06299319 Eh     39.53 kcal/mol

In case the symmetry of your molecule has not been determined correctly
or in case you have a reason to use a different symmetry number we print 
out the resulting rotational entropy values for sn=1,12:

 non-linear molecules -----------------------------------
|  sn= 1 | S(rot)=       0.01600777 Eh     10.05 kcal/mol|
|  sn= 2 | S(rot)=       0.01535332 Eh      9.63 kcal/mol|
|  sn= 3 | S(rot)=       0.01497048 Eh      9.39 kcal/mol|
|  sn= 4 | S(rot)=       0.01469886 Eh      9.22 kcal/mol|
|  sn= 5 | S(rot)=       0.01448817 Eh      9.09 kcal/mol|
|  sn= 6 | S(rot)=       0.01431603 Eh      8.98 kcal/mol|
|  sn= 7 | S(rot)=       0.01417048 Eh      8.89 kcal/mol|
|  sn= 8 | S(rot)=       0.01404440 Eh      8.81 kcal/mol|
|  sn= 9 | S(rot)=       0.01393319 Eh      8.74 kcal/mol|
|  sn=10 | S(rot)=       0.01383372 Eh      8.68 kcal/mol|
|  sn=11 | S(rot)=       0.01374373 Eh      8.62 kcal/mol|
|  sn=12 | S(rot)=       0.01366157 Eh      8.57 kcal/mol|
 linear molecules ---------------------------------------
|  Dinfh | S(rot)=       0.01009461 Eh      6.33 kcal/mol|
|  Cinfv | S(rot)=       0.01074906 Eh      6.75 kcal/mol|
 --------------------------------------------------------


-------------------
GIBBS FREE ENERGY
-------------------

The Gibbs free energy is G = H - T*S

Total enthalpy                    ...  -1266.77360588 Eh 
Total entropy correction          ...     -0.06299319 Eh    -39.53 kcal/mol
-----------------------------------------------------------------------
Final Gibbs free energy         ...  -1266.83659907 Eh

For completeness - the Gibbs free energy minus the electronic energy
G-E(el)                           ...      0.20813778 Eh    130.61 kcal/mol


Maximum memory used throughout the entire PROP-calculation: 111.2 MB

--------------------------------
SUGGESTED CITATIONS FOR THIS RUN
--------------------------------

Below you find a list of papers that are relevant to this ORCA run
We neither can nor want to force you to cite these papers, but we appreciate if you do
You receive ORCA, which is the product of decades of hard work by many enthusiastic individuals, for free
The only thing we kindly ask in return is that you cite our papers,
We deeply appreciate it, if you show your appreciation for ORCA by not just citing the generic ORCA reference.

Please note that relegating all ORCA citations to the supporting information does *not* help us.
SI sections are not indexed - citations you put there will not count into any citation statistics
But we need these citations in order to attract the funding resources that allow us to do what we are doing

Therefore, if you are a happy ORCA user, please consider citing a few of the papers listed below in the main body of your paper

In addition to the list printed below, the program has created the file m1_00_Tenofovir-GitHubGFN2-B97-3C-TZ.bibtex that contains the list in bibtex format
You can import this file easily into all common literature databanks and citation aid programs


List of essential papers. We consider these as the minimum necessary citations

  1. Neese,F.
     Software update: the ORCA program system, version 5.0
     WIRES Comput. Molec. Sci., 2022 12(1)e1606
     doi.org/10.1002/wcms.1606

List of papers to cite with high priority. The work reported in these papers was absolutely
necessary for this run to complete.
Our perspective: the developers of density functionals and basis sets usually get cited in chemistry papers
Good! But without the algorithms to do something with them, the functionals or basis sets would not do anything.
Hence, in our opinion, the algorithm design and method developments papers are equally worthy of getting cited

  1. Neese,F.
     An improvement of the resolution of the identity approximation for the formation of the Coulomb matrix
     J. Comp. Chem., 2003 24(14)1740-1747
     doi.org/10.1002/jcc.10318
  2. Bykov,D.; Petrenko,T.; Izsak,R.; Kossmann,S.; Becker,U.; Valeev,E.; Neese,F.
     Efficient implementation of the analytic second derivatives of Hartree-Fock and hybrid DFT energies: a detailed analysis of different approximations
     Molec. Phys., 2015 113 1961-1977
     doi.org/10.1080/00268976.2015.1025114
  3. Neese,F.
     The SHARK Integral Generation and Digestion System
     J. Comp. Chem., 2022  1-16
     doi.org/10.1002/jcc.26942
  4. Grimme,S.; Antony,J.; Ehrlich,S.; Krieg,H.
     A consistent and accurate ab initio parametrization of density functional dispersion correction (DFT-D) for the 94 elements H-Pu
     J. Chem. Phys., 2010 132 154104
     doi.org/10.1063/1.3382344
  5. Grimme,S.; Ehrlich,S.; Goerigk,L.
     Effect of the damping function in dispersion corrected density functional theory
     J. Comput. Chem., 2011 32(7)1456-1465
     doi.org/10.1002/jcc.21759

List of suggested additional citations. These are papers that are important in the 'surrounding' of 
of this run, or papers that preceded the highly important papers. If you like your results we are grateful for a citation.

  1. Neese,F.
     The ORCA program system
     WIRES Comput. Molec. Sci., 2012 2(1)73-78
     doi.org/10.1002/wcms.81
  2. Neese,F.
     Software update: the ORCA program system, version 4.0
     WIRES Comput. Molec. Sci., 2018 8(1)1-6
     doi.org/10.1002/wcms.1327
  3. Neese,F.; Wennmohs,F.; Becker,U.; Riplinger,C.
     The ORCA quantum chemistry program package
     J. Chem. Phys., 2020 152 Art. No. L224108
     doi.org/10.1063/5.0004608

List of optional additional citations

  1. Neese,F.
     Approximate second-order SCF convergence for spin unrestricted wavefunctions
     Chem. Phys. Lett., 2000 325(1-3)93-98
     doi.org/10.1016/s0009-2614(00)00662-x

Timings for individual modules:

Sum of individual times          ...      564.338 sec (=   9.406 min)
Startup calculation              ...       85.480 sec (=   1.425 min)  15.1 %
SCF iterations                   ...      172.068 sec (=   2.868 min)  30.5 %
Property integrals               ...       86.950 sec (=   1.449 min)  15.4 %
SCF Response                     ...       83.921 sec (=   1.399 min)  14.9 %
Property calculations            ...       35.280 sec (=   0.588 min)   6.3 %
SCF Gradient evaluation          ...      100.451 sec (=   1.674 min)  17.8 %
Geometry relaxation              ...        0.189 sec (=   0.003 min)   0.0 %
                             ****ORCA TERMINATED NORMALLY****
TOTAL RUN TIME: 0 days 0 hours 9 minutes 29 seconds 495 msec
