
                                 *****************
                                 * O   R   C   A *
                                 *****************

                                            #,                                       
                                            ###                                      
                                            ####                                     
                                            #####                                    
                                            ######                                   
                                           ########,                                 
                                     ,,################,,,,,                         
                               ,,#################################,,                 
                          ,,##########################################,,             
                       ,#########################################, ''#####,          
                    ,#############################################,,   '####,        
                  ,##################################################,,,,####,       
                ,###########''''           ''''###############################       
              ,#####''   ,,,,##########,,,,          '''####'''          '####       
            ,##' ,,,,###########################,,,                        '##       
           ' ,,###''''                  '''############,,,                           
         ,,##''                                '''############,,,,        ,,,,,,###''
      ,#''                                            '''#######################'''  
     '                                                          ''''####''''         
             ,#######,   #######,   ,#######,      ##                                
            ,#'     '#,  ##    ##  ,#'     '#,    #''#        ,####,   ,####,        
            ##       ##  ##   ,#'  ##            #'  '#       #'       #'  '#        
            ##       ##  #######   ##           ,######,      #####,   #    #        
            '#,     ,#'  ##    ##  '#,     ,#' ,#      #,     #,   #   #,  ,#        
             '#######'   ##     ##  '#######'  #'      '#     '####' # '####'        



                #########################################################
                #                        -***-                          #
                #          Department of theory and spectroscopy        #
                #                                                       #
                #                      Frank Neese                      #
                #                                                       #
                #     Directorship, Architecture, Infrastructure        #
                #                    SHARK, DRIVERS                     #
                #        Core code/Algorithms in most modules           #
                #                                                       #
                #        Max Planck Institute fuer Kohlenforschung      #
                #                Kaiser Wilhelm Platz 1                 #
                #                 D-45470 Muelheim/Ruhr                 #
                #                      Germany                          #
                #                                                       #
                #                  All rights reserved                  #
                #                        -***-                          #
                #########################################################


                         Program Version 6.0.1  -  RELEASE   -


 With contributions from (in alphabetic order):
[Max-Planck-Institut fuer Kohlenforschung]                               
  Daniel Aravena         : Magnetic Suceptibility                        
  Michael Atanasov       : Ab Initio Ligand Field Theory (pilot matlab implementation)
  Alexander A. Auer      : GIAO ZORA, VPT2 properties, NMR spectrum      
  Ute Becker             : All parallelization in ORCA, NUMFREQ, NUMCALC 
  Giovanni Bistoni       : ED, misc. LED, open-shell LED, HFLD           
  Martin Brehm           : Molecular dynamics                            
  Dmytro Bykov           : pre 5.0 version of the SCF Hessian            
  Marcos Casanova-Páez   : Triplet and SCS-CIS(D). UHF-(DLPNO)-IP/EA/STEOM-CCSD. UHF-CVS-IP/STEOM-CCSD   
  Vijay G. Chilkuri      : MRCI spin determinant printing, contributions to CSF-ICE 
  Pauline Colinet        : FMM embedding                                 
  Dipayan Datta          : RHF DLPNO-CCSD density                        
  Achintya Kumar Dutta   : EOM-CC, STEOM-CC                              
  Nicolas Foglia         : Exact transition moments, OPA infrastructure, MCD improvements    
  Dmitry Ganyushin       : Spin-Orbit,Spin-Spin,Magnetic field MRCI      
  Miquel Garcia-Rates    : C-PCM and meta-GGA Hessian, CCSD/C-PCM, Gaussian charge scheme 
  Tiago L. C. Gouveia    : GS-ROHF, GS-ROCIS                             
  Yang Guo               : DLPNO-NEVPT2, F12-NEVPT2, CIM, IAO-localization        
  Andreas Hansen         : Spin unrestricted coupled pair/coupled cluster methods 
  Ingolf Harden          : AUTO-CI MPn and infrastructure                
  Benjamin Helmich-Paris : MC-RPA, TRAH-(SCF,CASSCF), AVAS, COSX integrals, SCF dyn. polar. 
  Lee Huntington         : MR-EOM, pCC                                   
  Robert Izsak           : Overlap fitted RIJCOSX, COSX-SCS-MP3, EOM     
  Riya Kayal             : Wick's Theorem for AUTO-CI, AUTO-CI UHF-CCSDT 
  Emily Kempfer          : AUTO-CI, RHF CISDT and CCSDT                  
  Christian Kollmar      : KDIIS, OOCD, Brueckner-CCSD(T), CCSD density, CASPT2, CASPT2-K, improved NEVPT2 
  Axel Koslowski         : Symmetry handling                             
  Simone Kossmann        : meta-GGA functionals, TD-DFT gradient, OOMP2, (MP2 Hessian; deprecated post 5.0) 
  Lucas Lang             : DCDCAS                                        
  Marvin Lechner         : AUTO-CI (C++ implementation), FIC-MRCC        
  Spencer Leger          : CASSCF response                               
  Dagmar Lenk            : GEPOL surface, SMD, ORCA-2-JSON               
  Dimitrios Liakos       : Extrapolation schemes; Compound Job, initial MDCI parallelization 
  Dimitrios Manganas     : Further ROCIS development; embedding schemes. LFT, Crystal Embedding 
  Dimitrios Pantazis     : SARC Basis sets                               
  Anastasios Papadopoulos: AUTO-CI, single reference methods and gradients 
  Taras Petrenko         : pre 6.0 DFT Hessian and TD-DFT gradient, (ASA, deprecated), ECA, 1-Electron XAS/XES, NRVS 
  Peter Pinski           : DLPNO-MP2, DLPNO-MP2 Gradient                 
  Christoph Reimann      : Effective Core Potentials                     
  Marius Retegan         : Local ZFS, SOC                                
  Christoph Riplinger    : Optimizer, TS searches, QM/MM, DLPNO-CCSD(T), (RO)-DLPNO pert. Triples 
  Michael Roemelt        : Original ROCIS implementation                 
  Masaaki Saitow         : Open-shell DLPNO-CCSD energy and density      
  Barbara Sandhoefer     : DKH picture change effects                    
  Kantharuban Sivalingam : CASSCF convergence/infrastructure, NEVPT2 and variants, FIC-MRCI 
  Bernardo de Souza      : ESD, SOC TD-DFT                               
  Georgi L. Stoychev     : AutoAux, RI-MP2 NMR, DLPNO-MP2 response, X2C  
  Van Anh Tran           : RI-MP2 g-tensors                              
  Willem Van den Heuvel  : Paramagnetic NMR                              
  Zikuan Wang            : NOTCH, Electric field optimization            
  Frank Wennmohs         : Technical directorship and infrastructure     
  Hang Xu                : AUTO-CI-Response properties                   
                                                                         
[FACCTs GmbH]                                                            
  Markus Bursch, Miquel Garcia-Rates, Christoph Riplinger, Bernardo de Souza, Georgi L. Stoychev 
                                                                 
  APM, Basis sets (HGBS, AHGBS, def-TZVP (Ac-Lr), def2-XVPD (La-Lu)), CI-OPT, improved COSX, DLPNO-Multilevel,           
  DOCKER, DRACO, updates on ESD, GOAT, IRC, LR-CPCM, MBIS, meta-GGA TD-DFT gradient, ML-optimized integration grids, 
  MM, NACMEs, nearIR, NEB, NEB-TS, NL-DFT gradient (VV10), 2- and 3-layer-ONIOM, interface openCOSMO-RS, QMMM,   
  Crystal-QMMM, SF, symmetry and pop. for TD-DFT, r2SCAN hybrids, SOLVATOR                                   
                                                                         
[Other institutions]                                                     
  V. Asgeirsson          : NEB                                           
  Christoph Bannwarth    : sTDA-DFT, sTD-DFT, PBEh-3c, B97-3c, D3        
  Sebastian Ehlert       : rSCAN, r2SCAN, r2SCAN-3c, D4, dhf basis sets  
  Marvin Friede          : D4 for Fr, Ra, Ac-Lr                          
  Lars Goerigk           : TD-DFT with DH, B97 family of functionals     
  Stefan Grimme          : VdW corrections, initial TS optimization, DFT functionals, gCP, sTDA/sTD-DF 
  Waldemar Hujo          : DFT-NL                                        
  H. Jonsson             : NEB                                           
  Holger Kruse           : gCP                                           
  Marcel Mueller         : wB97X-3c, vDZP basis set                      
  Hagen Neugebauer       : wr2SCAN                                       
  Tobias Risthaus        : range-separated hybrid DFT                    
  Lukas Wittmann         : regularized MP2, r2SCAN double-hybrids, wr2SCAN        
                                                                         
We gratefully acknowledge several colleagues who have allowed us to      
interface, adapt or use parts of their codes:                            
  Ed Valeev, F. Pavosevic, A. Kumar             : LibInt (2-el integral package), F12 methods 
  Garnet Chan, S. Sharma, J. Yang, R. Olivares  : DMRG                   
  Ulf Ekstrom                                   : XCFun DFT Library      
  Mihaly Kallay                                 : mrcc  (arbitrary order and MRCC methods)
  Frank Weinhold                                : gennbo (NPA and NBO analysis)           
  Simon Mueller                                 : openCOSMO-RS                            
  Christopher J. Cramer and Donald G. Truhlar   : smd solvation model                     
  S Lehtola, MJT Oliveira, MAL Marques          : LibXC Library                           
  Liviu Ungur et al                             : ANISO software                          


 Your calculation uses the libint2 library for the computation of 2-el integrals
 For citations please refer to: http://libint.valeyev.net

 Your ORCA version has been built with support for libXC version: 6.2.2
 For citations please refer to: https://libxc.gitlab.io

 This ORCA versions uses:
   CBLAS   interface :  Fast vector & matrix operations
   LAPACKE interface :  Fast linear algebra routines
   SCALAPACK package :  Parallel linear algebra routines
   Shared memory     :  Shared parallel matrices
   BLAS/LAPACK       :  OpenBLAS 0.3.27  USE64BITINT DYNAMIC_ARCH NO_AFFINITY Zen SINGLE_THREADED
        Core in use  :  Zen
   Copyright (c) 2011-2014, The OpenBLAS Project


NOTE: MaxCore=6000 MB was set to SCF,MP2,MDCI,CIPSI,MRCI and CIS
      => If you want to overwrite this, your respective input block should be placed after the MaxCore statement
Your calculation utilizes the atom-pairwise dispersion correction
with the Becke-Johnson damping scheme (D3BJ)


Your calculation employs the composite approach B97-3c by Grimme and coworkers.
For the correct reference, please check the publication list of the Grimme group:
http://www.thch.uni-bonn.de/tc/index.php?section=publikationen&subsection=grimme#2017
   

XCFun DFT library Copyright 2009-2010 Ulf Ekstrom and contributors.
See http://admol.org/xcfun for more information.
This is free software; see the source code for copying conditions.
There is ABSOLUTELY NO WARRANTY; not even for MERCHANTABILITY or FITNESS FOR A PARTICULAR PURPOSE.
For details see the documentation.
Scientific users of this library should cite U. Ekstrom, L. Visscher, R. Bast, A. J. Thorvaldsen and K. Ruud;
J.Chem.Theor.Comp. 2010, DOI: 10.1021/ct100117s
XCFun Version 0.99 

================================================================================

----- Orbital basis set information -----
Your calculation utilizes the basis: def2-mTZVP
----- AuxJ basis set information -----
Your calculation utilizes the basis: def2-mTZVP/J
================================================================================
                                        WARNINGS
                       Please study these warnings very carefully!
================================================================================


WARNING: Geometry Optimization
  ===> : Switching off AutoStart
         For restart on a previous wavefunction, please use MOREAD

================================================================================
                                       INPUT FILE
================================================================================
NAME = m1_00_Ezetimibe-GitHubGFN2-B97-3C-TZ.inp
|  1> %pal nprocs 16 end
|  2> %MaxCore 6000
|  3> # put your comments here
|  4> ! B97-3C  OPT  FREQ DEFGRID3 NOTRAH
|  5> %scf MaxIter 800 end
|  6> %output
|  7> Print [P_Hirshfeld] 1
|  8> end
|  9> %geom
| 10> MaxIter 3000
| 11>  TolE 1e-6 #TolE 5e-6 Energy change (a.u.)
| 12>  TolRMSG 3e-5 #TolRMSG 1e-4 RMS gradient (a.u.)
| 13>  TolMaxG 1e-4 #TolMaxG 3e-3 Max. element of gradient (a.u.)
| 14>  TolRMSD 2e-3 #TolRMSD 2e-3 RMS displacement (a.u.)
| 15>  TolMaxD 4e-3 #TolMaxD 4e-3 Max. displacement (a.u.)
| 16> end
| 17> * xyz 0 1
| 18>  F         6.6308069915         1.7339500884        -0.6995111510
| 19>  C         5.5297060049         0.9915360803        -0.4511971156
| 20>  C         4.6501030133         1.4042200948         0.5327458858
| 21>  C         3.5238250270         0.6449810865         0.7864019219
| 22>  C         3.2868600322        -0.5176309361         0.0555319562
| 23>  C         4.1861750235        -0.9159389505        -0.9339190459
| 24>  C         5.3122560098        -0.1592259422        -1.1885950819
| 25>  H         6.0192290030        -0.4512049531        -1.9485460841
| 26>  H         3.9922170276        -1.8169859679        -1.4928920191
| 27>  N         2.1589370460        -1.2810979443         0.3118679925
| 28>  C         1.6492940537        -2.4290469653        -0.2202829697
| 29>  O         2.0091440506        -3.1411039844        -1.1179969558
| 30>  C         0.4686260673        -2.4180119552         0.7490610467
| 31>  C        -0.9062509421        -2.3995429908         0.1010160656
| 32>  C        -2.0261559272        -2.4148749780         1.1405850818
| 33>  H        -1.9875669068        -3.3494709625         1.7034671061
| 34>  H        -1.8875099285        -1.5842399577         1.8342020577
| 35>  C        -3.4315789378        -2.2863030135         0.5108130982
| 36>  C        -3.5713569651        -0.9220180326        -0.1345929362
| 37>  C        -3.3159979870        -0.7142390651        -1.4838269453
| 38>  C        -3.3821870116         0.5553969194        -2.0306269782
| 39>  C        -3.7180560141         1.6126709368        -1.2097660016
| 40>  C        -4.0087289928         1.4365919686         0.1301620072
| 41>  C        -3.9255309684         0.1635289838         0.6590940399
| 42>  H        -4.1393149516         0.0095230089         1.7059840470
| 43>  H        -4.2811199955         2.2835329812         0.7391159885
| 44>  F        -3.7385040381         2.8652469228        -1.7269780347
| 45>  H        -3.1745260286         0.7268488944        -3.0750449857
| 46>  H        -3.0682039850        -1.5431820790        -2.1300739267
| 47>  H        -4.1725819254        -2.3648610020         1.3150071108
| 48>  O        -3.7337679356        -3.3581380403        -0.3435368690
| 49>  H        -3.0767819450        -3.3960480503        -1.0471798772
| 50>  H        -0.9697629393        -3.2843740087        -0.5380789100
| 51>  H        -0.9997589628        -1.5111910088        -0.5269799568
| 52>  H         0.5303670884        -3.2279169349         1.4781190674
| 53>  C         1.0806750570        -1.0866139329         1.2792780025
| 54>  C         0.2869210377         0.1721150516         1.0961779802
| 55>  C        -0.3276189549         0.7728510726         2.1896039729
| 56>  C        -1.0540629725         1.9353880590         2.0441019522
| 57>  C        -1.1769779981         2.5292240240         0.7902309381
| 58>  C        -0.5665510056         1.9331670029        -0.3076550546
| 59>  C         0.1553630121         0.7657210166        -0.1532020337
| 60>  H         0.6371860058         0.3244680001        -1.0135620288
| 61>  H        -0.6545990255         2.3887119757        -1.2844090655
| 62>  O        -1.8912170147         3.6746860119         0.6944209177
| 63>  H        -1.9721250314         3.9487269862        -0.2285320885
| 64>  H        -1.5285899668         2.4068670752         2.8894809463
| 65>  H        -0.2307769351         0.3254690999         3.1686599834
| 66>  H         1.4354050726        -1.1605579006         2.3136639995
| 67>  H         2.8246160335         0.9573330974         1.5460789235
| 68>  H         4.8495210091         2.3070741122         1.0875778589
| 69> *
| 70> 
| 71> 
| 72> 
| 73> 
| 74>                          ****END OF INPUT****
================================================================================

                       *****************************
                       * Geometry Optimization Run *
                       *****************************

Geometry optimization settings:
Update method            Update   .... BFGS
Choice of coordinates    CoordSys .... (2022) Redundant Internals
Initial Hessian          InHess   .... Almloef's Model
Max. no of cycles        MaxIter  .... 3000

Convergence Tolerances:
Energy Change            TolE     ....  1.0000e-06 Eh
Max. Gradient            TolMAXG  ....  1.0000e-04 Eh/bohr
RMS Gradient             TolRMSG  ....  3.0000e-05 Eh/bohr
Max. Displacement        TolMAXD  ....  4.0000e-03 bohr
RMS Displacement         TolRMSD  ....  2.0000e-03 bohr
Strict Convergence                .... False

------------------------------------------------------------------------------
                        ORCA OPTIMIZATION COORDINATE SETUP
------------------------------------------------------------------------------

The optimization will be done in redundant internal coordinates (2022)
Making redundant internal coordinates   ...  (2022 redundants) done
Evaluating the initial hessian          ...  (Almloef) done
Evaluating the coordinates              ...  done
Calculating the B-matrix                .... done
Calculating the G-matrix                .... done
Diagonalizing the G-matrix              .... done
Small eigenvalue found = 1.635e-03
Small eigenvalue found = 3.871e-03
Small eigenvalue found = 5.447e-03
Small eigenvalue found = 9.839e-03
Small eigenvalue found = 1.565e-02
Small eigenvalue found = 1.771e-02
Small eigenvalue found = 2.457e-02
The first mode is                       ....  129
The number of degrees of freedom        ....  147

    -----------------------------------------------------------------
                    Redundant Internal Coordinates


    -----------------------------------------------------------------
         Definition                    Initial Value    Approx d2E/dq
    -----------------------------------------------------------------
      1. B(C   1,F   0)                  1.3510         0.600002   
      2. B(C   2,C   1)                  1.3828         0.641528   
      3. B(C   3,C   2)                  1.3818         0.643976   
      4. B(C   4,C   3)                  1.3936         0.616694   
      5. B(C   5,C   4)                  1.3951         0.613098   
      6. B(C   6,C   5)                  1.3804         0.647199   
      7. B(C   6,C   1)                  1.3839         0.638859   
      8. B(H   7,C   6)                  1.0782         0.376007   
      9. B(H   8,C   5)                  1.0779         0.376412   
     10. B(N   9,C   4)                  1.3859         0.568028   
     11. B(C  10,N   9)                  1.3641         0.615507   
     12. B(O  11,C  10)                  1.2010         1.120491   
     13. B(C  12,C  10)                  1.5277         0.376808   
     14. B(C  13,C  12)                  1.5201         0.387465   
     15. B(C  14,C  13)                  1.5281         0.376175   
     16. B(H  15,C  14)                  1.0917         0.357867   
     17. B(H  16,C  14)                  1.0910         0.358779   
     18. B(C  17,C  14)                  1.5454         0.352987   
     19. B(C  18,C  17)                  1.5157         0.393718   
     20. B(C  19,C  18)                  1.3888         0.627518   
     21. B(C  20,C  19)                  1.3840         0.638814   
     22. B(C  21,C  20)                  1.3800         0.648134   
     23. B(C  22,C  21)                  1.3824         0.642596   
     24. B(C  23,C  22)                  1.3811         0.645611   
     25. B(C  23,C  18)                  1.3906         0.623403   
     26. B(H  24,C  23)                  1.0795         0.374211   
     27. B(H  25,C  22)                  1.0781         0.376171   
     28. B(F  26,C  21)                  1.3553         0.590620   
     29. B(H  27,C  20)                  1.0786         0.375533   
     30. B(H  28,C  19)                  1.0799         0.373712   
     31. B(H  29,C  17)                  1.0964         0.351796   
     32. B(O  30,C  17)                  1.4036         0.532347   
     33. B(H  31,O  30)                  0.9634         0.513461   
     34. B(H  32,C  13)                  1.0933         0.355703   
     35. B(H  33,C  13)                  1.0919         0.357567   
     36. B(H  34,C  12)                  1.0915         0.358175   
     37. B(C  35,C  12)                  1.5583         0.336665   
     38. B(C  35,N   9)                  1.4616         0.430129   
     39. B(C  36,C  35)                  1.4993         0.418139   
     40. B(C  37,C  36)                  1.3907         0.623128   
     41. B(C  38,C  37)                  1.3785         0.651652   
     42. B(C  39,C  38)                  1.3928         0.618362   
     43. B(C  40,C  39)                  1.3904         0.623841   
     44. B(C  41,C  40)                  1.3813         0.645126   
     45. B(C  41,C  36)                  1.3895         0.626015   
     46. B(H  42,C  41)                  1.0803         0.373145   
     47. B(H  43,C  40)                  1.0814         0.371724   
     48. B(O  44,C  39)                  1.3533         0.640384   
     49. B(H  45,F  26)                  2.5572         0.001367   
     50. B(H  45,O  44)                  0.9662         0.508301   
     51. B(H  46,C  38)                  1.0780         0.376298   
     52. B(H  47,C  37)                  1.0808         0.372509   
     53. B(H  48,C  35)                  1.0960         0.352226   
     54. B(H  49,C   3)                  1.0787         0.375381   
     55. B(H  50,C   2)                  1.0783         0.375902   
     56. A(F   0,C   1,C   6)          119.1474         0.429098   
     57. A(C   2,C   1,C   6)          121.8261         0.439109   
     58. A(F   0,C   1,C   2)          119.0264         0.429419   
     59. A(C   1,C   2,C   3)          119.0206         0.439741   
     60. A(C   3,C   2,H  50)          121.0876         0.357785   
     61. A(C   1,C   2,H  50)          119.8918         0.357553   
     62. A(C   2,C   3,C   4)          120.0486         0.436621   
     63. A(C   4,C   3,H  49)          120.0474         0.355081   
     64. A(C   2,C   3,H  49)          119.9025         0.357701   
     65. A(C   5,C   4,N   9)          119.9011         0.423663   
     66. A(C   3,C   4,N   9)          120.0638         0.424106   
     67. A(C   3,C   4,C   5)          120.0350         0.432777   
     68. A(C   6,C   5,H   8)          120.6195         0.358172   
     69. A(C   4,C   5,C   6)          120.0120         0.436554   
     70. A(C   4,C   5,H   8)          119.3685         0.354894   
     71. A(C   5,C   6,H   7)          121.0953         0.358106   
     72. A(C   1,C   6,H   7)          119.8470         0.357317   
     73. A(C   1,C   6,C   5)          119.0577         0.439807   
     74. A(C   4,N   9,C  35)          130.5038         0.395322   
     75. A(C   4,N   9,C  10)          134.0669         0.421204   
     76. A(C  10,N   9,C  35)           95.4262         0.400939   
     77. A(O  11,C  10,C  12)          135.2467         0.438572   
     78. A(N   9,C  10,C  12)           92.0135         0.394245   
     79. A(N   9,C  10,O  11)          132.7346         0.476421   
     80. A(C  10,C  12,C  35)           85.3263         0.357490   
     81. A(C  13,C  12,H  34)          110.1789         0.325984   
     82. A(C  10,C  12,H  34)          112.0099         0.324492   
     83. A(C  10,C  12,C  13)          115.3797         0.366168   
     84. A(H  34,C  12,C  35)          112.6122         0.318564   
     85. A(C  13,C  12,C  35)          119.3357         0.359190   
     86. A(H  32,C  13,H  33)          108.4970         0.289958   
     87. A(C  14,C  13,H  32)          110.3017         0.324034   
     88. A(C  12,C  13,H  33)          109.4227         0.325893   
     89. A(C  14,C  13,H  33)          109.6736         0.324312   
     90. A(C  12,C  13,C  14)          111.8834         0.366062   
     91. A(C  12,C  13,H  32)          106.9724         0.325612   
     92. A(H  16,C  14,C  17)          108.1379         0.321126   
     93. A(C  13,C  14,C  17)          112.8559         0.360279   
     94. A(H  15,C  14,H  16)          108.6325         0.290388   
     95. A(C  13,C  14,H  16)          109.3741         0.324493   
     96. A(H  15,C  14,C  17)          108.2691         0.320992   
     97. A(C  13,C  14,H  15)          109.4782         0.324357   
     98. A(C  14,C  17,C  18)          109.4066         0.363093   
     99. A(H  29,C  17,O  30)          104.2558         0.340530   
    100. A(C  18,C  17,O  30)          114.0986         0.387329   
    101. A(C  14,C  17,O  30)          112.3526         0.380046   
    102. A(C  18,C  17,H  29)          108.3311         0.325878   
    103. A(C  14,C  17,H  29)          108.0457         0.320095   
    104. A(C  17,C  18,C  19)          122.0989         0.401213   
    105. A(C  19,C  18,C  23)          118.9812         0.435437   
    106. A(C  17,C  18,C  23)          118.8880         0.400749   
    107. A(C  18,C  19,C  20)          120.8167         0.437358   
    108. A(C  20,C  19,H  28)          118.6029         0.356941   
    109. A(C  18,C  19,H  28)          120.5790         0.355862   
    110. A(C  19,C  20,C  21)          118.6509         0.439916   
    111. A(C  21,C  20,H  27)          120.0698         0.358117   
    112. A(C  19,C  20,H  27)          121.2791         0.357236   
    113. A(C  20,C  21,C  22)          122.0158         0.440385   
    114. A(C  22,C  21,F  26)          118.9767         0.428335   
    115. A(C  20,C  21,F  26)          118.9950         0.428994   
    116. A(C  23,C  22,H  25)          121.5359         0.357983   
    117. A(C  21,C  22,H  25)          120.0371         0.357698   
    118. A(C  21,C  22,C  23)          118.4230         0.440075   
    119. A(C  22,C  23,H  24)          119.4046         0.357665   
    120. A(C  18,C  23,H  24)          119.5091         0.355545   
    121. A(C  18,C  23,C  22)          121.0863         0.437674   
    122. A(C  17,O  30,H  31)          109.1348         0.359812   
    123. A(C  36,C  35,H  48)          110.0743         0.329193   
    124. A(N   9,C  35,H  48)          112.1426         0.328746   
    125. A(C  12,C  35,H  48)          112.9914         0.317696   
    126. A(C  12,C  35,C  36)          117.8914         0.363890   
    127. A(N   9,C  35,C  36)          114.9249         0.377173   
    128. A(N   9,C  35,C  12)           87.1834         0.363378   
    129. A(C  37,C  36,C  41)          118.7232         0.435215   
    130. A(C  35,C  36,C  41)          121.2382         0.405323   
    131. A(C  35,C  36,C  37)          120.0373         0.404993   
    132. A(C  38,C  37,H  47)          119.4665         0.357954   
    133. A(C  36,C  37,H  47)          119.5924         0.355244   
    134. A(C  36,C  37,C  38)          120.9404         0.438375   
    135. A(C  39,C  38,H  46)          118.7277         0.355391   
    136. A(C  37,C  38,H  46)          121.1993         0.358571   
    137. A(C  37,C  38,C  39)          120.0709         0.437768   
    138. A(C  40,C  39,O  44)          122.5924         0.434224   
    139. A(C  38,C  39,O  44)          118.1115         0.433535   
    140. A(C  38,C  39,C  40)          119.2959         0.434342   
    141. A(C  41,C  40,H  43)          119.9744         0.357214   
    142. A(C  39,C  40,H  43)          119.7944         0.355185   
    143. A(C  39,C  40,C  41)          120.2307         0.437670   
    144. A(C  40,C  41,H  42)          119.2922         0.357446   
    145. A(C  36,C  41,H  42)          119.9589         0.355625   
    146. A(C  36,C  41,C  40)          120.7377         0.437944   
    147. A(C  39,O  44,H  45)          110.6038         0.370733   
    148. D(C   3,C   2,C   1,F   0)    179.9854         0.028604   
    149. D(C   3,C   2,C   1,C   6)      0.0552         0.028604   
    150. D(H  50,C   2,C   1,C   6)   -179.9145         0.028604   
    151. D(H  50,C   2,C   1,F   0)      0.0158         0.028604   
    152. D(C   4,C   3,C   2,H  50)    179.9513         0.028837   
    153. D(H  49,C   3,C   2,C   1)   -179.5760         0.028837   
    154. D(H  49,C   3,C   2,H  50)      0.3932         0.028837   
    155. D(C   4,C   3,C   2,C   1)     -0.0179         0.028837   
    156. D(N   9,C   4,C   3,C   2)    179.8463         0.026300   
    157. D(N   9,C   4,C   3,H  49)     -0.5963         0.026300   
    158. D(C   5,C   4,C   3,C   2)     -0.0437         0.026300   
    159. D(C   5,C   4,C   3,H  49)    179.5137         0.026300   
    160. D(C   6,C   5,C   4,C   3)      0.0700         0.025976   
    161. D(H   8,C   5,C   4,N   9)      0.1223         0.025976   
    162. D(H   8,C   5,C   4,C   3)   -179.9875         0.025976   
    163. D(C   6,C   5,C   4,N   9)   -179.8202         0.025976   
    164. D(C   1,C   6,C   5,H   8)   -179.9755         0.029147   
    165. D(H   7,C   6,C   1,C   2)    179.9917         0.028350   
    166. D(H   7,C   6,C   5,C   4)    179.9451         0.029147   
    167. D(H   7,C   6,C   1,F   0)      0.0615         0.028350   
    168. D(C   5,C   6,C   1,C   2)     -0.0292         0.028350   
    169. D(H   7,C   6,C   5,H   8)      0.0033         0.029147   
    170. D(C   5,C   6,C   1,F   0)   -179.9594         0.028350   
    171. D(C   1,C   6,C   5,C   4)     -0.0338         0.029147   
    172. D(C  35,N   9,C   4,C   5)    179.9385         0.025811   
    173. D(C  35,N   9,C   4,C   3)      0.0483         0.025811   
    174. D(C  10,N   9,C   4,C   5)     -0.8708         0.025811   
    175. D(C  10,N   9,C   4,C   3)    179.2390         0.025811   
    176. D(C  12,C  10,N   9,C   4)    178.8184         0.030643   
    177. D(O  11,C  10,N   9,C  35)    177.4424         0.030643   
    178. D(O  11,C  10,N   9,C   4)     -1.9395         0.030643   
    179. D(C  12,C  10,N   9,C  35)     -1.7997         0.030643   
    180. D(C  35,C  12,C  10,N   9)      1.6860         0.010606   
    181. D(H  34,C  12,C  10,O  11)     69.9538         0.010606   
    182. D(H  34,C  12,C  10,N   9)   -110.8369         0.010606   
    183. D(C  13,C  12,C  10,O  11)    -57.1730         0.010606   
    184. D(C  13,C  12,C  10,N   9)    122.0364         0.010606   
    185. D(H  32,C  13,C  12,H  34)    -69.9701         0.011942   
    186. D(H  32,C  13,C  12,C  10)     58.0743         0.011942   
    187. D(C  14,C  13,C  12,C  35)    -81.6368         0.011942   
    188. D(C  14,C  13,C  12,H  34)     50.9285         0.011942   
    189. D(H  32,C  13,C  12,C  35)    157.4646         0.011942   
    190. D(C  14,C  13,C  12,C  10)    178.9729         0.011942   
    191. D(H  16,C  14,C  13,H  33)    -66.4751         0.011290   
    192. D(H  16,C  14,C  13,H  32)    174.0853         0.011290   
    193. D(H  16,C  14,C  13,C  12)     55.1379         0.011290   
    194. D(H  15,C  14,C  13,H  33)    174.6035         0.011290   
    195. D(H  15,C  14,C  13,H  32)     55.1639         0.011290   
    196. D(H  15,C  14,C  13,C  12)    -63.7835         0.011290   
    197. D(H  29,C  17,C  14,H  15)     55.3947         0.010025   
    198. D(H  29,C  17,C  14,C  13)    176.7414         0.010025   
    199. D(C  18,C  17,C  14,H  16)     55.6074         0.010025   
    200. D(C  18,C  17,C  14,H  15)    173.1359         0.010025   
    201. D(H  29,C  17,C  14,H  16)    -62.1339         0.010025   
    202. D(C  18,C  17,C  14,C  13)    -65.5173         0.010025   
    203. D(C  23,C  18,C  17,H  29)     34.2757         0.011521   
    204. D(C  23,C  18,C  17,C  14)    -83.2866         0.011521   
    205. D(C  19,C  18,C  17,O  30)    -32.1839         0.011521   
    206. D(C  19,C  18,C  17,H  29)   -147.8028         0.011521   
    207. D(C  19,C  18,C  17,C  14)     94.6350         0.011521   
    208. D(H  28,C  19,C  18,C  17)      3.9417         0.027289   
    209. D(C  20,C  19,C  18,C  23)      1.4187         0.027289   
    210. D(C  20,C  19,C  18,C  17)   -176.5009         0.027289   
    211. D(H  28,C  19,C  18,C  23)   -178.1387         0.027289   
    212. D(H  27,C  20,C  19,H  28)     -1.1273         0.028346   
    213. D(H  27,C  20,C  19,C  18)    179.3067         0.028346   
    214. D(C  21,C  20,C  19,H  28)    179.0579         0.028346   
    215. D(C  21,C  20,C  19,C  18)     -0.5081         0.028346   
    216. D(F  26,C  21,C  20,H  27)     -2.1421         0.029237   
    217. D(F  26,C  21,C  20,C  19)    177.6750         0.029237   
    218. D(C  22,C  21,C  20,H  27)    179.1543         0.029237   
    219. D(C  22,C  21,C  20,C  19)     -1.0286         0.029237   
    220. D(H  25,C  22,C  21,F  26)      2.1701         0.028705   
    221. D(H  25,C  22,C  21,C  20)   -179.1261         0.028705   
    222. D(C  23,C  22,C  21,F  26)   -177.1128         0.028705   
    223. D(C  23,C  22,C  21,C  20)      1.5910         0.028705   
    224. D(H  24,C  23,C  22,H  25)      0.1071         0.028994   
    225. D(H  24,C  23,C  22,C  21)    179.3787         0.028994   
    226. D(C  18,C  23,C  22,H  25)   -179.9041         0.028994   
    227. D(C  18,C  23,C  22,C  21)     -0.6325         0.028994   
    228. D(H  24,C  23,C  18,C  19)    179.1512         0.026910   
    229. D(H  24,C  23,C  18,C  17)     -2.8616         0.026910   
    230. D(C  22,C  23,C  18,C  19)     -0.8376         0.026910   
    231. D(C  22,C  23,C  18,C  17)    177.1497         0.026910   
    232. D(H  31,O  30,C  17,H  29)   -175.7140         0.022514   
    233. D(H  31,O  30,C  17,C  18)     66.3082         0.022514   
    234. D(H  31,O  30,C  17,C  14)    -58.9663         0.022514   
    235. D(C  36,C  35,C  12,H  34)   -132.8258         0.009194   
    236. D(C  36,C  35,C  12,C  13)     -1.3180         0.009194   
    237. D(C  36,C  35,C  12,C  10)    115.2563         0.009194   
    238. D(N   9,C  35,C  12,H  34)    110.3435         0.009194   
    239. D(N   9,C  35,C  12,C  13)   -118.1488         0.009194   
    240. D(N   9,C  35,C  12,C  10)     -1.5744         0.009194   
    241. D(H  48,C  35,N   9,C   4)    -65.1040         0.015774   
    242. D(C  36,C  35,N   9,C  10)   -117.8123         0.015774   
    243. D(C  36,C  35,N   9,C   4)     61.6036         0.015774   
    244. D(C  12,C  35,N   9,C  10)      1.7653         0.015774   
    245. D(C  12,C  35,N   9,C   4)   -178.8188         0.015774   
    246. D(C  41,C  36,C  35,C  12)    -73.0175         0.012932   
    247. D(C  41,C  36,C  35,N   9)     27.6236         0.012932   
    248. D(C  37,C  36,C  35,H  48)    -24.1971         0.012932   
    249. D(C  37,C  36,C  35,C  12)    107.4036         0.012932   
    250. D(C  37,C  36,C  35,N   9)   -151.9554         0.012932   
    251. D(H  47,C  37,C  36,C  41)   -179.7314         0.026885   
    252. D(H  47,C  37,C  36,C  35)     -0.1419         0.026885   
    253. D(C  38,C  37,C  36,C  41)     -0.0429         0.026885   
    254. D(C  38,C  37,C  36,C  35)    179.5466         0.026885   
    255. D(H  46,C  38,C  37,H  47)     -0.0457         0.029578   
    256. D(H  46,C  38,C  37,C  36)   -179.7346         0.029578   
    257. D(C  39,C  38,C  37,H  47)    179.4230         0.029578   
    258. D(C  39,C  38,C  37,C  36)     -0.2659         0.029578   
    259. D(O  44,C  39,C  38,H  46)     -0.0611         0.026451   
    260. D(O  44,C  39,C  38,C  37)   -179.5429         0.026451   
    261. D(C  40,C  39,C  38,H  46)    179.8215         0.026451   
    262. D(C  40,C  39,C  38,C  37)      0.3397         0.026451   
    263. D(H  43,C  40,C  39,O  44)      0.0372         0.026950   
    264. D(H  43,C  40,C  39,C  38)   -179.8398         0.026950   
    265. D(C  41,C  40,C  39,O  44)    179.7697         0.026950   
    266. D(C  41,C  40,C  39,C  38)     -0.1073         0.026950   
    267. D(H  42,C  41,C  40,C  39)   -178.9856         0.028948   
    268. D(C  36,C  41,C  40,H  43)    179.5286         0.028948   
    269. D(C  36,C  41,C  40,C  39)     -0.2034         0.028948   
    270. D(H  42,C  41,C  36,C  37)    179.0520         0.027150   
    271. D(H  42,C  41,C  36,C  35)     -0.5323         0.027150   
    272. D(C  40,C  41,C  36,C  37)      0.2779         0.027150   
    273. D(H  42,C  41,C  40,H  43)      0.7464         0.028948   
    274. D(C  40,C  41,C  36,C  35)   -179.3065         0.027150   
    275. D(H  45,O  44,C  39,C  40)      5.1170         0.030235   
    276. D(H  45,O  44,C  39,C  38)   -175.0046         0.030235   
    -----------------------------------------------------------------

Number of atoms                         .... 51
Number of degrees of freedom            .... 276


         *************************************************************
         *                GEOMETRY OPTIMIZATION CYCLE   1            *
         *************************************************************
---------------------------------
CARTESIAN COORDINATES (ANGSTROEM)
---------------------------------
  F      6.630807    1.733950   -0.699511
  C      5.529706    0.991536   -0.451197
  C      4.650103    1.404220    0.532746
  C      3.523825    0.644981    0.786402
  C      3.286860   -0.517631    0.055532
  C      4.186175   -0.915939   -0.933919
  C      5.312256   -0.159226   -1.188595
  H      6.019229   -0.451205   -1.948546
  H      3.992217   -1.816986   -1.492892
  N      2.158937   -1.281098    0.311868
  C      1.649294   -2.429047   -0.220283
  O      2.009144   -3.141104   -1.117997
  C      0.468626   -2.418012    0.749061
  C     -0.906251   -2.399543    0.101016
  C     -2.026156   -2.414875    1.140585
  H     -1.987567   -3.349471    1.703467
  H     -1.887510   -1.584240    1.834202
  C     -3.431579   -2.286303    0.510813
  C     -3.571357   -0.922018   -0.134593
  C     -3.315998   -0.714239   -1.483827
  C     -3.382187    0.555397   -2.030627
  C     -3.718056    1.612671   -1.209766
  C     -4.008729    1.436592    0.130162
  C     -3.925531    0.163529    0.659094
  H     -4.139315    0.009523    1.705984
  H     -4.281120    2.283533    0.739116
  F     -3.738504    2.865247   -1.726978
  H     -3.174526    0.726849   -3.075045
  H     -3.068204   -1.543182   -2.130074
  H     -4.172582   -2.364861    1.315007
  O     -3.733768   -3.358138   -0.343537
  H     -3.076782   -3.396048   -1.047180
  H     -0.969763   -3.284374   -0.538079
  H     -0.999759   -1.511191   -0.526980
  H      0.530367   -3.227917    1.478119
  C      1.080675   -1.086614    1.279278
  C      0.286921    0.172115    1.096178
  C     -0.327619    0.772851    2.189604
  C     -1.054063    1.935388    2.044102
  C     -1.176978    2.529224    0.790231
  C     -0.566551    1.933167   -0.307655
  C      0.155363    0.765721   -0.153202
  H      0.637186    0.324468   -1.013562
  H     -0.654599    2.388712   -1.284409
  O     -1.891217    3.674686    0.694421
  H     -1.972125    3.948727   -0.228532
  H     -1.528590    2.406867    2.889481
  H     -0.230777    0.325469    3.168660
  H      1.435405   -1.160558    2.313664
  H      2.824616    0.957333    1.546079
  H      4.849521    2.307074    1.087578

----------------------------
CARTESIAN COORDINATES (A.U.)
----------------------------
  NO LB      ZA    FRAG     MASS         X           Y           Z
   0 F     9.0000    0    18.998   12.530409    3.276691   -1.321885
   1 C     6.0000    0    12.011   10.449630    1.873732   -0.852639
   2 C     6.0000    0    12.011    8.787421    2.653591    1.006744
   3 C     6.0000    0    12.011    6.659064    1.218838    1.486084
   4 C     6.0000    0    12.011    6.211265   -0.978181    0.104940
   5 C     6.0000    0    12.011    7.910724   -1.730874   -1.764851
   6 C     6.0000    0    12.011   10.038709   -0.300893   -2.246119
   7 H     1.0000    0     1.008   11.374694   -0.852654   -3.682218
   8 H     1.0000    0     1.008    7.544197   -3.433606   -2.821157
   9 N     7.0000    0    14.007    4.079800   -2.420924    0.589345
  10 C     6.0000    0    12.011    3.116714   -4.590234   -0.416274
  11 O     8.0000    0    15.999    3.796732   -5.935826   -2.112708
  12 C     6.0000    0    12.011    0.885575   -4.569380    1.415520
  13 C     6.0000    0    12.011   -1.712566   -4.534479    0.190893
  14 C     6.0000    0    12.011   -3.828880   -4.563452    2.155393
  15 H     1.0000    0     1.008   -3.755957   -6.329583    3.219086
  16 H     1.0000    0     1.008   -3.566877   -2.993780    3.466140
  17 C     6.0000    0    12.011   -6.484744   -4.320487    0.965297
  18 C     6.0000    0    12.011   -6.748887   -1.742362   -0.254344
  19 C     6.0000    0    12.011   -6.266328   -1.349716   -2.804027
  20 C     6.0000    0    12.011   -6.391407    1.049548   -3.837329
  21 C     6.0000    0    12.011   -7.026108    3.047506   -2.286126
  22 C     6.0000    0    12.011   -7.575400    2.714765    0.245971
  23 C     6.0000    0    12.011   -7.418178    0.309025    1.245507
  24 H     1.0000    0     1.008   -7.822172    0.017996    3.223843
  25 H     1.0000    0     1.008   -8.090144    4.315252    1.396727
  26 F     9.0000    0    18.998   -7.064749    5.414532   -3.263516
  27 H     1.0000    0     1.008   -5.998985    1.373545   -5.810993
  28 H     1.0000    0     1.008   -5.798065   -2.916192   -4.025256
  29 H     1.0000    0     1.008   -7.885037   -4.468940    2.485003
  30 O     8.0000    0    15.999   -7.055799   -6.345961   -0.649191
  31 H     1.0000    0     1.008   -5.814275   -6.417601   -1.978883
  32 H     1.0000    0     1.008   -1.832586   -6.206567   -1.016822
  33 H     1.0000    0     1.008   -1.889271   -2.855737   -0.995848
  34 H     1.0000    0     1.008    1.002249   -6.099879    2.793240
  35 C     6.0000    0    12.011    2.042180   -2.053403    2.417485
  36 C     6.0000    0    12.011    0.542202    0.325250    2.071476
  37 C     6.0000    0    12.011   -0.619110    1.460477    4.137752
  38 C     6.0000    0    12.011   -1.991890    3.657353    3.862793
  39 C     6.0000    0    12.011   -2.224166    4.779541    1.493320
  40 C     6.0000    0    12.011   -1.070626    3.653156   -0.581384
  41 C     6.0000    0    12.011    0.293594    1.447003   -0.289510
  42 H     1.0000    0     1.008    1.204107    0.613156   -1.915355
  43 H     1.0000    0     1.008   -1.237013    4.514011   -2.427181
  44 O     8.0000    0    15.999   -3.573882    6.944150    1.312265
  45 H     1.0000    0     1.008   -3.726776    7.462013   -0.431863
  46 H     1.0000    0     1.008   -2.888616    4.548320    5.460328
  47 H     1.0000    0     1.008   -0.436105    0.615047    5.987900
  48 H     1.0000    0     1.008    2.712522   -2.193137    4.372191
  49 H     1.0000    0     1.008    5.337751    1.809097    2.921666
  50 H     1.0000    0     1.008    9.164267    4.359738    2.055224

--------------------------------
INTERNAL COORDINATES (ANGSTROEM)
--------------------------------
 F      0   0   0     0.000000000000     0.00000000     0.00000000
 C      1   0   0     1.351022502511     0.00000000     0.00000000
 C      2   1   0     1.382806330857   119.02643067     0.00000000
 C      3   2   1     1.381769647517   119.02055316   179.98542651
 C      4   3   2     1.393553023970   120.04861676     0.00000000
 C      5   4   3     1.395145158566   120.03495927   359.95626061
 C      6   5   4     1.380410391134   120.01201323     0.06998202
 H      7   6   5     1.078233778763   121.09527929   179.94512626
 H      6   5   4     1.077940729589   119.36847901   180.01248774
 N      5   4   3     1.385929398965   120.06383210   179.84628633
 C     10   5   4     1.364077556807   134.06692519   179.23903814
 O     11  10   5     1.201002755849   132.73460729   358.06052711
 C     11  10   5     1.527653916202    92.01346098   178.81838228
 C     13  11  10     1.520062561591   115.37966944   122.03638964
 C     14  13  11     1.528111901965   111.88339507   178.97293359
 H     15  14  13     1.091693610872   109.47818677   296.21654949
 H     15  14  13     1.091000347920   109.37405276    55.13792483
 C     15  14  13     1.545431117878   112.85590924   175.55766103
 C     18  15  14     1.515704573875   109.40660794   294.48268899
 C     19  18  15     1.388817021189   122.09892737    94.63495768
 C     20  19  18     1.383960547160   120.81671863   183.49905344
 C     21  20  19     1.380017781630   118.65086554   359.49191853
 C     22  21  20     1.382353663993   122.01581312   358.97138767
 C     23  22  21     1.381079421955   118.42298899     1.59101290
 H     24  23  22     1.079536992763   119.40464188   179.37873380
 H     23  22  21     1.078114506218   120.03707147   180.87391369
 F     22  21  20     1.355312882538   118.99503374   177.67501355
 H     21  20  19     1.078576764993   121.27908436   179.30670264
 H     20  19  18     1.079899786410   120.57897071     3.94168573
 H     18  15  14     1.096350671588   108.04570647   176.74142993
 O     18  15  14     1.403589107083   112.35264520    62.28479797
 H     31  18  15     0.963421633394   109.13484077   301.03365444
 H     14  13  11     1.093344452523   106.97238156    58.07432694
 H     14  13  11     1.091921241669   109.42274275   300.73023351
 H     13  11  10     1.091459402532   112.00987511   249.16313228
 C     10   5   4     1.461627543207   130.50376885     0.04829079
 C     36  10   5     1.499323086510   114.92493327    61.60361833
 C     37  36  10     1.390727712726   120.03732093   208.04460954
 C     38  37  36     1.378544157248   120.94041912   179.54658904
 C     39  38  37     1.392817926667   120.07091769   359.73414659
 C     40  39  38     1.390416749950   119.29592577     0.33967857
 C     41  40  39     1.381284082130   120.23066067   359.89268564
 H     42  41  40     1.080313354077   119.29218648   181.01438907
 H     41  40  39     1.081351965764   119.79436490   180.16021537
 O     40  39  38     1.353292318225   118.11154958   180.45713846
 H     45  40  39     0.966171213820   110.60384447   184.99542993
 H     39  38  37     1.078023179112   121.19925524   180.26542371
 H     38  37  36     1.080777348945   119.59236347   359.85810306
 H     36  10   5     1.096018013135   112.14256623   294.89602631
 H      4   3   2     1.078687230880   119.90247904   180.42398855
 H      3   2   1     1.078309525210   119.89184865     0.00000000

---------------------------
INTERNAL COORDINATES (A.U.)
---------------------------
 F      0   0   0     0.000000000000     0.00000000     0.00000000
 C      1   0   0     2.553062530511     0.00000000     0.00000000
 C      2   1   0     2.613125261573   119.02643067     0.00000000
 C      3   2   1     2.611166213971   119.02055316   179.98542651
 C      4   3   2     2.633433568402   120.04861676     0.00000000
 C      5   4   3     2.636442266755   120.03495927   359.95626061
 C      6   5   4     2.608597591662   120.01201323     0.06998202
 H      7   6   5     2.037566550205   121.09527929   179.94512626
 H      6   5   4     2.037012767523   119.36847901   180.01248774
 N      5   4   3     2.619027004993   120.06383210   179.84628633
 C     10   5   4     2.577733007794   134.06692519   179.23903814
 O     11  10   5     2.269566294640   132.73460729   358.06052711
 C     11  10   5     2.886847529035    92.01346098   178.81838228
 C     13  11  10     2.872501947834   115.37966944   122.03638964
 C     14  13  11     2.887712996699   111.88339507   178.97293359
 H     15  14  13     2.063001946700   109.47818677   296.21654949
 H     15  14  13     2.061691869581   109.37405276    55.13792483
 C     15  14  13     2.920441571630   112.85590924   175.55766103
 C     18  15  14     2.864266544555   109.40660794   294.48268899
 C     19  18  15     2.624483820175   122.09892737    94.63495768
 C     20  19  18     2.615306414283   120.81671863   183.49905344
 C     21  20  19     2.607855667222   118.65086554   359.49191853
 C     22  21  20     2.612269845170   122.01581312   358.97138767
 C     23  22  21     2.609861876690   118.42298899     1.59101290
 H     24  23  22     2.040029267759   119.40464188   179.37873380
 H     23  22  21     2.037341157759   120.03707147   180.87391369
 F     22  21  20     2.561170173772   118.99503374   177.67501355
 H     21  20  19     2.038214700247   121.27908436   179.30670264
 H     20  19  18     2.040714848396   120.57897071     3.94168573
 H     18  15  14     2.071802516042   108.04570647   176.74142993
 O     18  15  14     2.652399016941   112.35264520    62.28479797
 H     31  18  15     1.820603038610   109.13484077   301.03365444
 H     14  13  11     2.066121585311   106.97238156    58.07432694
 H     14  13  11     2.063432106566   109.42274275   300.73023351
 H     13  11  10     2.062559357080   112.00987511   249.16313228
 C     10   5   4     2.762075766457   130.50376885     0.04829079
 C     36  10   5     2.833310019769   114.92493327    61.60361833
 C     37  36  10     2.628094503907   120.03732093   208.04460954
 C     38  37  36     2.605070920716   120.94041912   179.54658904
 C     39  38  37     2.632044435817   120.07091769   359.73414659
 C     40  39  38     2.627506869423   119.29592577     0.33967857
 C     41  40  39     2.610248628370   120.23066067   359.89268564
 H     42  41  40     2.041496378023   119.29218648   181.01438907
 H     41  40  39     2.043459069671   119.79436490   180.16021537
 O     40  39  38     2.557351860585   118.11154958   180.45713846
 H     45  40  39     1.825798992599   110.60384447   184.99542993
 H     39  38  37     2.037168574540   121.19925524   180.26542371
 H     38  37  36     2.042373201251   119.59236347   359.85810306
 H     36  10   5     2.071173882670   112.14256623   294.89602631
 H      4   3   2     2.038423450522   119.90247904   180.42398855
 H      3   2   1     2.037709690245   119.89184865     0.00000000

---------------------
BASIS SET INFORMATION
---------------------
There are 5 groups of distinct atoms

 Group   1 Type F   : 11s6p1d contracted to 5s3p1d pattern {62111/411/1}
 Group   2 Type C   : 11s6p1d contracted to 5s3p1d pattern {62111/411/1}
 Group   3 Type H   : 5s contracted to 3s pattern {311}
 Group   4 Type N   : 11s6p1d contracted to 5s3p1d pattern {62111/411/1}
 Group   5 Type O   : 11s6p2d contracted to 5s3p2d pattern {62111/411/11}

Atom   0F    basis set group =>   1
Atom   1C    basis set group =>   2
Atom   2C    basis set group =>   2
Atom   3C    basis set group =>   2
Atom   4C    basis set group =>   2
Atom   5C    basis set group =>   2
Atom   6C    basis set group =>   2
Atom   7H    basis set group =>   3
Atom   8H    basis set group =>   3
Atom   9N    basis set group =>   4
Atom  10C    basis set group =>   2
Atom  11O    basis set group =>   5
Atom  12C    basis set group =>   2
Atom  13C    basis set group =>   2
Atom  14C    basis set group =>   2
Atom  15H    basis set group =>   3
Atom  16H    basis set group =>   3
Atom  17C    basis set group =>   2
Atom  18C    basis set group =>   2
Atom  19C    basis set group =>   2
Atom  20C    basis set group =>   2
Atom  21C    basis set group =>   2
Atom  22C    basis set group =>   2
Atom  23C    basis set group =>   2
Atom  24H    basis set group =>   3
Atom  25H    basis set group =>   3
Atom  26F    basis set group =>   1
Atom  27H    basis set group =>   3
Atom  28H    basis set group =>   3
Atom  29H    basis set group =>   3
Atom  30O    basis set group =>   5
Atom  31H    basis set group =>   3
Atom  32H    basis set group =>   3
Atom  33H    basis set group =>   3
Atom  34H    basis set group =>   3
Atom  35C    basis set group =>   2
Atom  36C    basis set group =>   2
Atom  37C    basis set group =>   2
Atom  38C    basis set group =>   2
Atom  39C    basis set group =>   2
Atom  40C    basis set group =>   2
Atom  41C    basis set group =>   2
Atom  42H    basis set group =>   3
Atom  43H    basis set group =>   3
Atom  44O    basis set group =>   5
Atom  45H    basis set group =>   3
Atom  46H    basis set group =>   3
Atom  47H    basis set group =>   3
Atom  48H    basis set group =>   3
Atom  49H    basis set group =>   3
Atom  50H    basis set group =>   3
---------------------------------
AUXILIARY/J BASIS SET INFORMATION
---------------------------------
There are 5 groups of distinct atoms

 Group   1 Type F   : 8s3p4d contracted to 6s3p4d pattern {311111/111/1111}
 Group   2 Type C   : 8s3p3d contracted to 6s3p3d pattern {311111/111/111}
 Group   3 Type H   : 5s2p contracted to 3s1p pattern {311/2}
 Group   4 Type N   : 8s3p3d contracted to 6s3p3d pattern {311111/111/111}
 Group   5 Type O   : 8s3p3d contracted to 6s3p3d pattern {311111/111/111}

Atom   0F    basis set group =>   1
Atom   1C    basis set group =>   2
Atom   2C    basis set group =>   2
Atom   3C    basis set group =>   2
Atom   4C    basis set group =>   2
Atom   5C    basis set group =>   2
Atom   6C    basis set group =>   2
Atom   7H    basis set group =>   3
Atom   8H    basis set group =>   3
Atom   9N    basis set group =>   4
Atom  10C    basis set group =>   2
Atom  11O    basis set group =>   5
Atom  12C    basis set group =>   2
Atom  13C    basis set group =>   2
Atom  14C    basis set group =>   2
Atom  15H    basis set group =>   3
Atom  16H    basis set group =>   3
Atom  17C    basis set group =>   2
Atom  18C    basis set group =>   2
Atom  19C    basis set group =>   2
Atom  20C    basis set group =>   2
Atom  21C    basis set group =>   2
Atom  22C    basis set group =>   2
Atom  23C    basis set group =>   2
Atom  24H    basis set group =>   3
Atom  25H    basis set group =>   3
Atom  26F    basis set group =>   1
Atom  27H    basis set group =>   3
Atom  28H    basis set group =>   3
Atom  29H    basis set group =>   3
Atom  30O    basis set group =>   5
Atom  31H    basis set group =>   3
Atom  32H    basis set group =>   3
Atom  33H    basis set group =>   3
Atom  34H    basis set group =>   3
Atom  35C    basis set group =>   2
Atom  36C    basis set group =>   2
Atom  37C    basis set group =>   2
Atom  38C    basis set group =>   2
Atom  39C    basis set group =>   2
Atom  40C    basis set group =>   2
Atom  41C    basis set group =>   2
Atom  42H    basis set group =>   3
Atom  43H    basis set group =>   3
Atom  44O    basis set group =>   5
Atom  45H    basis set group =>   3
Atom  46H    basis set group =>   3
Atom  47H    basis set group =>   3
Atom  48H    basis set group =>   3
Atom  49H    basis set group =>   3
Atom  50H    basis set group =>   3


           ************************************************************
           *        Program running with 16 parallel MPI-processes    *
           *              working on a common directory               *
           ************************************************************
------------------------------------------------------------------------------
                             ORCA STARTUP CALCULATIONS
                           -- RI-GTO INTEGRALS CHOSEN --
------------------------------------------------------------------------------
------------------------------------------------------------------------------
                   ___                                                        
                  /   \      - P O W E R E D   B Y -                         
                 /     \                                                     
                 |  |  |   _    _      __       _____    __    __             
                 |  |  |  | |  | |    /  \     |  _  \  |  |  /  |          
                  \  \/   | |  | |   /    \    | | | |  |  | /  /          
                 / \  \   | |__| |  /  /\  \   | |_| |  |  |/  /          
                |  |  |   |  __  | /  /__\  \  |    /   |      \           
                |  |  |   | |  | | |   __   |  |    \   |  |\   \          
                \     /   | |  | | |  |  |  |  | |\  \  |  | \   \       
                 \___/    |_|  |_| |__|  |__|  |_| \__\ |__|  \__/        
                                                                              
                      - O R C A' S   B I G   F R I E N D -                    
                                      &                                       
                       - I N T E G R A L  F E E D E R -                       
                                                                              
 v1 FN, 2020, v2 2021, v3 2022-2024                                           
------------------------------------------------------------------------------


----------------------
SHARK INTEGRAL PACKAGE
----------------------

Number of atoms                             ...     51
Number of basis functions                   ...    648
Number of shells                            ...    336
Maximum angular momentum                    ...      2
Integral batch strategy                     ... SHARK/LIBINT Hybrid
RI-J (if used) integral strategy            ... SPLIT-RIJ (Revised 2003 algorithm where possible)
Printlevel                                  ...      1
Contraction scheme used                     ... SEGMENTED contraction
Prescreening option                         ... SCHWARTZ
   Thresh                                   ... 2.500e-11
   Tcut                                     ... 2.500e-12
   Tpresel                                  ... 2.500e-12 
Coulomb Range Separation                    ... NOT USED
Exchange Range Separation                   ... NOT USED
Multipole approximations                    ... NOT USED
Finite Nucleus Model                        ... NOT USED
CABS basis                                  ... NOT available
Auxiliary Coulomb fitting basis             ... AVAILABLE
   # of basis functions in Aux-J            ...   1036
   # of shells in Aux-J                     ...    446
   Maximum angular momentum in Aux-J        ...      2
Auxiliary J/K fitting basis                 ... NOT available
Auxiliary Correlation fitting basis         ... NOT available
Auxiliary 'external' fitting basis          ... NOT available

Checking pre-screening integrals            ... done (  0.0 sec) Dimension = 336
Check shell pair data                       ... done (  0.0 sec)
Shell pair information
Shell pair cut-off parameter TPreSel        ...   2.5e-12
Total number of shell pairs                 ...     56616
Shell pairs after pre-screening             ...     39302
Total number of primitive shell pairs       ...    210999
Primitive shell pairs kept                  ...     88930
          la=0 lb=0:  14829 shell pairs
          la=1 lb=0:  14297 shell pairs
          la=1 lb=1:   3369 shell pairs
          la=2 lb=0:   4304 shell pairs
          la=2 lb=1:   2166 shell pairs
          la=2 lb=2:    337 shell pairs

Calculating one electron integrals          ... done (  0.1 sec)
Calculating RI/J V-Matrix + Cholesky decomp.... done (  0.1 sec)
Calculating Nuclear repulsion               ... done (  0.0 sec) ENN=   2948.807577756596 Eh

Diagonalization of the overlap matrix:
Smallest eigenvalue                        ... 5.680e-06
Time for diagonalization                   ...    0.056 sec
Threshold for overlap eigenvalues          ... 1.000e-07
Number of eigenvalues below threshold      ... 0
Time for construction of square roots      ...    0.025 sec
Total time needed                          ...    0.085 sec

-------------------
DFT GRID GENERATION
-------------------

General Integration Accuracy     IntAcc      ... 4.959
Radial Grid Type                 RadialGrid  ... OptM3 with GC (2021)
Angular Grid (max. ang.)         AngularGrid ... 6 (Lebedev-590)
Angular grid pruning method      GridPruning ... 4 (adaptive)
Weight generation scheme         WeightScheme... mBecke (2022)
Basis function cutoff            BFCut       ... 1.0000e-11
Integration weight cutoff        WCut        ... 1.0000e-14
Partially contracted basis set               ... off
Rotationally invariant grid construction     ... off
Angular grids for H and He will be reduced by one unit
Diffuse basis detected: some atoms will have their outermost
                        angular grid increased by 1.

Total number of grid points                  ...   600145
Total number of batches                      ...     9399
Average number of points per batch           ...       63
Average number of grid points per atom       ...    11768
Initializing property integral containers    ... done (  0.0 sec)

SHARK setup successfully completed in   5.1 seconds

Maximum memory used throughout the entire STARTUP-calculation: 153.4 MB


           ************************************************************
           *        Program running with 16 parallel MPI-processes    *
           *              working on a common directory               *
           ************************************************************
-------------------------------------------------------------------------------
                                 ORCA GUESS
                   Start orbitals & Density for SCF / CASSCF
-------------------------------------------------------------------------------

------------
SCF SETTINGS
------------
Hamiltonian:
 Density Functional     Method          .... DFT(GTOs)
 Exchange Functional    Exchange        .... B973C
 Correlation Functional Correlation     .... B973C
 Gradients option       PostSCFGGA      .... off
 RI-approximation to the Coulomb term is turned on
   Number of AuxJ basis functions       .... 1036


General Settings:
 Integral files         IntName         .... m1_00_Ezetimibe-GitHubGFN2-B97-3C-TZ
 Hartree-Fock type      HFTyp           .... RHF
 Total Charge           Charge          ....    0
 Multiplicity           Mult            ....    1
 Number of Electrons    NEL             ....  214
 Basis Dimension        Dim             ....  648
 Nuclear Repulsion      ENuc            ....   2948.8075777566 Eh

Convergence Acceleration:
 AO-DIIS                CNVDIIS         .... on
   Start iteration      DIISMaxIt       ....    12
   Startup error        DIISStart       ....  0.200000
   # of expansion vecs  DIISMaxEq       ....     5
   Bias factor          DIISBfac        ....   1.050
   Max. coefficient     DIISMaxC        ....  10.000
 MO-DIIS                CNVKDIIS        .... off
 Trust-Rad. Augm. Hess. CNVTRAH         .... off
 SOSCF                  CNVSOSCF        .... on
   Start iteration      SOSCFMaxIt      ....   150
   Startup grad/error   SOSCFStart      ....  0.003300
   Hessian update       SOSCFHessUp     .... L-BFGS
 Level Shifting         CNVShift        .... on
   Level shift para.    LevelShift      ....    0.2500
   Turn off err/grad.   ShiftErr        ....    0.0010
 Zerner damping         CNVZerner       .... off
 Static damping         CNVDamp         .... on
   Fraction old density DampFac         ....    0.7000
   Max. Damping (<1)    DampMax         ....    0.9800
   Min. Damping (>=0)   DampMin         ....    0.0000
   Turn off err/grad.   DampErr         ....    0.1000

SCF Procedure:
 Maximum # iterations   MaxIter         ....   800
 SCF integral mode      SCFMode         .... Direct
   Integral package                     .... SHARK and LIBINT hybrid scheme
 Reset frequency        DirectResetFreq ....    20
 Integral Threshold     Thresh          ....  2.500e-11 Eh
 Primitive CutOff       TCut            ....  2.500e-12 Eh

Convergence Tolerance:
 Convergence Check Mode ConvCheckMode   .... Total+1el-Energy
 Convergence forced     ConvForced      .... 0
 Energy Change          TolE            ....  1.000e-08 Eh
 1-El. energy change                    ....  1.000e-05 Eh
 Orbital Gradient       TolG            ....  1.000e-05
 Orbital Rotation angle TolX            ....  1.000e-05
 DIIS Error             TolErr          ....  5.000e-07

--------------------------------
INITIAL GUESS: MINIMAL BASIS EHT
--------------------------------
The minimal basis has 171 functions
EHT matrix was diagonalized
Basis set overlap was calculated now projecting the orbitals
Using GuessMode=FMatrix for the initial guess
C*T matrix was formed
Effective Fockian was calculated
Effective Fockian was diagonalized
Initial density was built
                      ------------------
                      INITIAL GUESS DONE
                      ------------------
             **** ENERGY FILE WAS UPDATED (m1_00_Ezetimibe-GitHubGFN2-B97-3C-TZ.en.tmp) ****
Finished Guess after   0.5 sec
Maximum memory used throughout the entire GUESS-calculation: 67.7 MB


           ************************************************************
           *        Program running with 16 parallel MPI-processes    *
           *              working on a common directory               *
           ************************************************************

-------------------------------------------------------------------------------------------
                                      ORCA LEAN-SCF
                              memory conserving SCF solver
-------------------------------------------------------------------------------------------

----------------------------------------D-I-I-S--------------------------------------------
Iteration    Energy (Eh)           Delta-E    RMSDP     MaxDP     DIISErr   Damp  Time(sec)
-------------------------------------------------------------------------------------------
               ***  Starting incremental Fock matrix formation  ***
    1    -1401.9982424989734682     0.00e+00  5.48e-03  2.16e-01  4.78e-01  0.700   1.6
    2    -1403.5017081453947867    -1.50e+00  4.50e-03  2.14e-01  3.38e-01  0.700   1.6
    3    -1404.3232832329117628    -8.22e-01  2.95e-03  1.03e-01  2.36e-01  0.700   1.5
                               ***Turning on AO-DIIS***
    4    -1404.9287834338251741    -6.06e-01  2.63e-03  1.53e-01  1.66e-01  0.700   1.5
    5    -1405.3485540627239061    -4.20e-01  1.84e-03  1.10e-01  1.15e-01  0.700   1.5
    6    -1405.6457634160983616    -2.97e-01  1.23e-03  7.22e-02  8.02e-02  0.700   1.5
    7    -1405.8574688946487186    -2.12e-01  2.83e-03  1.72e-01  5.62e-02  0.000   1.5
    8    -1406.3450533631189501    -4.88e-01  6.21e-04  5.44e-02  3.07e-02  0.000   1.5
    9    -1406.3496689797316321    -4.62e-03  1.51e-04  2.36e-02  1.29e-02  0.000   1.4
   10    -1406.3498842522180894    -2.15e-04  6.71e-05  1.17e-02  4.38e-03  0.000   1.4
                              *** Initializing SOSCF ***
---------------------------------------S-O-S-C-F--------------------------------------
Iteration    Energy (Eh)           Delta-E    RMSDP     MaxDP     MaxGrad    Time(sec)
--------------------------------------------------------------------------------------
   11    -1406.3499862516632675    -1.02e-04  2.54e-05  1.24e-03  4.28e-04     1.5
               *** Restarting incremental Fock matrix formation ***
   12    -1406.3499893617758971    -3.11e-06  6.94e-05  6.86e-03  1.03e-04     1.7
   13    -1406.3499876408309319     1.72e-06  3.14e-05  3.48e-03  1.92e-04     1.3
   14    -1406.3499898831419159    -2.24e-06  2.70e-05  1.45e-03  3.48e-05     1.3
   15    -1406.3499896933312812     1.90e-07  8.66e-06  5.48e-04  7.22e-05     1.3
   16    -1406.3499899488210758    -2.55e-07  2.75e-05  1.76e-03  6.11e-06     1.3
   17    -1406.3499899278444900     2.10e-08  1.22e-05  8.40e-04  1.86e-05     1.3
   18    -1406.3499899608291344    -3.30e-08  1.27e-05  6.53e-04  5.24e-06     1.3
   19    -1406.3499899828798334    -2.21e-08  6.76e-06  4.47e-04  7.96e-06     1.3
   20    -1406.3499899700186688     1.29e-08  1.98e-05  1.60e-03  1.44e-06     1.3
                  *** Gradient check signals convergence ***

               *****************************************************
               *                     SUCCESS                       *
               *           SCF CONVERGED AFTER  20 CYCLES          *
               *****************************************************

             **** ENERGY FILE WAS UPDATED (m1_00_Ezetimibe-GitHubGFN2-B97-3C-TZ.en.tmp) ****

----------------
TOTAL SCF ENERGY
----------------

Total Energy       :      -1406.34998997001867 Eh          -38268.72877 eV

Components:
Nuclear Repulsion  :       2948.80757775659595 Eh           80241.13357 eV
Electronic Energy  :      -4355.15756772661462 Eh         -118509.86234 eV
One Electron Energy:      -7784.72261036825967 Eh         -211833.07161 eV
Two Electron Energy:       3429.56504264164505 Eh           93323.20927 eV

Virial components:
Potential Energy   :      -2808.02402333794998 Eh          -76410.21830 eV
Kinetic Energy     :       1401.67403336793132 Eh           38141.48952 eV
Virial Ratio       :          2.00333598004299

DFT components:
N(Alpha)           :      106.999911644311 electrons
N(Beta)            :      106.999911644311 electrons
N(Total)           :      213.999823288623 electrons
E(XC)              :     -190.831011094007 Eh       

---------------
SCF CONVERGENCE
---------------

  Last Energy change         ...   -1.2861e-08  Tolerance :   1.0000e-08
  Last MAX-Density change    ...    1.5968e-03  Tolerance :   1.0000e-07
  Last RMS-Density change    ...    1.9791e-05  Tolerance :   5.0000e-09
  Last DIIS Error            ...    4.2825e-04  Tolerance :   5.0000e-07
  Last Orbital Gradient      ...    1.4351e-06  Tolerance :   1.0000e-05
  Last Orbital Rotation      ...    5.3389e-06  Tolerance :   1.0000e-05


----------------
ORBITAL ENERGIES
----------------

  NO   OCC          E(Eh)            E(eV) 
   0   2.0000     -24.265083      -660.2865 
   1   2.0000     -24.251486      -659.9165 
   2   2.0000     -18.789238      -511.2812 
   3   2.0000     -18.753803      -510.3169 
   4   2.0000     -18.725916      -509.5581 
   5   2.0000     -14.038907      -382.0181 
   6   2.0000      -9.990125      -271.8451 
   7   2.0000      -9.982067      -271.6258 
   8   2.0000      -9.975983      -271.4603 
   9   2.0000      -9.964607      -271.1508 
  10   2.0000      -9.957029      -270.9445 
  11   2.0000      -9.955069      -270.8912 
  12   2.0000      -9.944993      -270.6170 
  13   2.0000      -9.918932      -269.9079 
  14   2.0000      -9.910463      -269.6774 
  15   2.0000      -9.909332      -269.6466 
  16   2.0000      -9.909216      -269.6435 
  17   2.0000      -9.908781      -269.6316 
  18   2.0000      -9.908765      -269.6312 
  19   2.0000      -9.908705      -269.6296 
  20   2.0000      -9.908301      -269.6186 
  21   2.0000      -9.907632      -269.6004 
  22   2.0000      -9.907068      -269.5850 
  23   2.0000      -9.906427      -269.5676 
  24   2.0000      -9.905190      -269.5339 
  25   2.0000      -9.905131      -269.5323 
  26   2.0000      -9.904432      -269.5133 
  27   2.0000      -9.903711      -269.4937 
  28   2.0000      -9.902106      -269.4500 
  29   2.0000      -9.899762      -269.3862 
  30   2.0000      -1.142137       -31.0791 
  31   2.0000      -1.129867       -30.7452 
  32   2.0000      -0.997720       -27.1493 
  33   2.0000      -0.978476       -26.6257 
  34   2.0000      -0.959196       -26.1010 
  35   2.0000      -0.915777       -24.9196 
  36   2.0000      -0.810628       -22.0583 
  37   2.0000      -0.807109       -21.9625 
  38   2.0000      -0.799744       -21.7621 
  39   2.0000      -0.757323       -20.6078 
  40   2.0000      -0.730267       -19.8716 
  41   2.0000      -0.708579       -19.2814 
  42   2.0000      -0.704969       -19.1832 
  43   2.0000      -0.701832       -19.0978 
  44   2.0000      -0.700802       -19.0698 
  45   2.0000      -0.699954       -19.0467 
  46   2.0000      -0.659697       -17.9513 
  47   2.0000      -0.631941       -17.1960 
  48   2.0000      -0.618782       -16.8379 
  49   2.0000      -0.586346       -15.9553 
  50   2.0000      -0.581294       -15.8178 
  51   2.0000      -0.579828       -15.7779 
  52   2.0000      -0.578508       -15.7420 
  53   2.0000      -0.558256       -15.1909 
  54   2.0000      -0.550183       -14.9712 
  55   2.0000      -0.538528       -14.6541 
  56   2.0000      -0.515851       -14.0370 
  57   2.0000      -0.514886       -14.0108 
  58   2.0000      -0.509217       -13.8565 
  59   2.0000      -0.495890       -13.4939 
  60   2.0000      -0.478018       -13.0075 
  61   2.0000      -0.475660       -12.9434 
  62   2.0000      -0.474371       -12.9083 
  63   2.0000      -0.456118       -12.4116 
  64   2.0000      -0.443108       -12.0576 
  65   2.0000      -0.438148       -11.9226 
  66   2.0000      -0.432391       -11.7660 
  67   2.0000      -0.426324       -11.6009 
  68   2.0000      -0.423518       -11.5245 
  69   2.0000      -0.418148       -11.3784 
  70   2.0000      -0.415732       -11.3126 
  71   2.0000      -0.411148       -11.1879 
  72   2.0000      -0.408390       -11.1129 
  73   2.0000      -0.406844       -11.0708 
  74   2.0000      -0.402402       -10.9499 
  75   2.0000      -0.398037       -10.8311 
  76   2.0000      -0.394355       -10.7309 
  77   2.0000      -0.393154       -10.6983 
  78   2.0000      -0.389291       -10.5932 
  79   2.0000      -0.384159       -10.4535 
  80   2.0000      -0.379610       -10.3297 
  81   2.0000      -0.366686        -9.9780 
  82   2.0000      -0.363860        -9.9011 
  83   2.0000      -0.359656        -9.7867 
  84   2.0000      -0.355411        -9.6712 
  85   2.0000      -0.354297        -9.6409 
  86   2.0000      -0.344847        -9.3838 
  87   2.0000      -0.340167        -9.2564 
  88   2.0000      -0.336836        -9.1658 
  89   2.0000      -0.327667        -8.9163 
  90   2.0000      -0.325375        -8.8539 
  91   2.0000      -0.321317        -8.7435 
  92   2.0000      -0.315274        -8.5790 
  93   2.0000      -0.313659        -8.5351 
  94   2.0000      -0.311309        -8.4712 
  95   2.0000      -0.308813        -8.4032 
  96   2.0000      -0.299493        -8.1496 
  97   2.0000      -0.293326        -7.9818 
  98   2.0000      -0.271159        -7.3786 
  99   2.0000      -0.249065        -6.7774 
 100   2.0000      -0.243652        -6.6301 
 101   2.0000      -0.241404        -6.5689 
 102   2.0000      -0.236497        -6.4354 
 103   2.0000      -0.227470        -6.1898 
 104   2.0000      -0.219915        -5.9842 
 105   2.0000      -0.204280        -5.5587 
 106   2.0000      -0.197899        -5.3851 
 107   0.0000      -0.057233        -1.5574 
 108   0.0000      -0.052858        -1.4383 
 109   0.0000      -0.048648        -1.3238 
 110   0.0000      -0.047030        -1.2797 
 111   0.0000      -0.037945        -1.0325 
 112   0.0000      -0.036709        -0.9989 
 113   0.0000       0.003576         0.0973 
 114   0.0000       0.010194         0.2774 
 115   0.0000       0.012283         0.3342 
 116   0.0000       0.018828         0.5123 
 117   0.0000       0.030192         0.8216 
*Only the first 10 virtual orbitals were printed.

                    ********************************
                    * MULLIKEN POPULATION ANALYSIS *
                    ********************************

-----------------------
MULLIKEN ATOMIC CHARGES
-----------------------
   0 F :   -0.245097
   1 C :    0.369813
   2 C :   -0.319736
   3 C :   -0.051414
   4 C :   -0.046916
   5 C :   -0.104407
   6 C :   -0.286023
   7 H :    0.184223
   8 H :    0.207797
   9 N :    0.045022
  10 C :    0.138486
  11 O :   -0.416327
  12 C :    0.299245
  13 C :   -0.584134
  14 C :   -0.188078
  15 H :    0.169716
  16 H :    0.154142
  17 C :   -0.272263
  18 C :    0.106335
  19 C :   -0.062088
  20 C :   -0.293083
  21 C :    0.300487
  22 C :   -0.176264
  23 C :   -0.130991
  24 H :    0.179028
  25 H :    0.167229
  26 F :   -0.260869
  27 H :    0.178247
  28 H :    0.173315
  29 H :    0.181934
  30 O :   -0.529739
  31 H :    0.421310
  32 H :    0.194288
  33 H :    0.183537
  34 H :    0.181333
  35 C :   -0.639750
  36 C :   -0.017584
  37 C :   -0.147587
  38 C :   -0.223829
  39 C :    0.261294
  40 C :   -0.252339
  41 C :   -0.026242
  42 H :    0.193810
  43 H :    0.179714
  44 O :   -0.572695
  45 H :    0.447659
  46 H :    0.167848
  47 H :    0.180227
  48 H :    0.210538
  49 H :    0.189723
  50 H :    0.181155
Sum of atomic charges:    0.0000000

--------------------------------
MULLIKEN REDUCED ORBITAL CHARGES
--------------------------------
  0 F s       :     3.927336  s :     3.927336
      pz      :     1.903045  p :     5.300288
      px      :     1.613826
      py      :     1.783417
      dz2     :     0.002307  d :     0.017473
      dxz     :     0.003026
      dyz     :     0.001582
      dx2y2   :     0.004340
      dxy     :     0.006217

  1 C s       :     3.054713  s :     3.054713
      pz      :     0.919493  p :     2.498487
      px      :     0.745285
      py      :     0.833709
      dz2     :     0.011953  d :     0.076986
      dxz     :     0.015166
      dyz     :     0.012546
      dx2y2   :     0.019497
      dxy     :     0.017824

  2 C s       :     3.197054  s :     3.197054
      pz      :     1.015770  p :     3.082435
      px      :     0.993769
      py      :     1.072895
      dz2     :     0.006293  d :     0.040247
      dxz     :     0.008633
      dyz     :     0.007555
      dx2y2   :     0.009134
      dxy     :     0.008632

  3 C s       :     3.065668  s :     3.065668
      pz      :     0.998617  p :     2.944728
      px      :     0.953665
      py      :     0.992445
      dz2     :     0.004856  d :     0.041019
      dxz     :     0.009665
      dyz     :     0.007699
      dx2y2   :     0.010150
      dxy     :     0.008648

  4 C s       :     3.227583  s :     3.227583
      pz      :     0.877481  p :     2.756502
      px      :     0.973605
      py      :     0.905417
      dz2     :     0.010423  d :     0.062831
      dxz     :     0.011095
      dyz     :     0.011377
[...]
114:   1398.47   0.011190   56.55  0.002497  ( 0.045747  0.013071 -0.015279)
115:   1410.75   0.014087   71.19  0.003116  (-0.046719 -0.030024 -0.005655)
116:   1418.60   0.005420   27.39  0.001192  ( 0.016005  0.028622  0.010817)
117:   1443.21   0.002948   14.90  0.000637  (-0.005744 -0.021316 -0.012252)
118:   1453.40   0.000765    3.87  0.000164  ( 0.010444  0.007364 -0.000995)
119:   1475.07   0.003823   19.32  0.000809  ( 0.000457  0.023178 -0.016471)
120:   1477.77   0.000368    1.86  0.000078  (-0.004397 -0.006598 -0.003865)
121:   1493.14   0.002042   10.32  0.000427  (-0.004610 -0.000051 -0.020139)
122:   1535.62   0.009747   49.26  0.001981  (-0.024060  0.032279 -0.018969)
123:   1536.76   0.067387  340.55  0.013684  ( 0.102626  0.053891 -0.015740)
124:   1545.52   0.016820   85.00  0.003396  ( 0.024396 -0.052524  0.006508)
125:   1615.39   0.000610    3.08  0.000118  ( 0.010101 -0.001546 -0.003666)
126:   1624.41   0.004019   20.31  0.000772  ( 0.016535 -0.019747 -0.010432)
127:   1626.60   0.001042    5.26  0.000200  (-0.001607  0.009042  0.010747)
128:   1639.21   0.003051   15.42  0.000581  (-0.001646 -0.022435  0.008650)
129:   1642.20   0.000125    0.63  0.000024  ( 0.001950  0.003958 -0.002089)
130:   1651.07   0.010962   55.40  0.002072  ( 0.024061 -0.037665  0.008622)
131:   1795.39   0.098238  496.45  0.017075  ( 0.005769  0.112357  0.066465)
132:   2981.48   0.004482   22.65  0.000469  (-0.008161 -0.015416 -0.012840)
133:   2995.29   0.002654   13.41  0.000276  (-0.008984  0.007628 -0.011730)
134:   3001.37   0.004649   23.49  0.000483  ( 0.001704 -0.002333  0.021795)
135:   3012.00   0.008020   40.53  0.000831  (-0.014422 -0.007923  0.023669)
136:   3018.60   0.006115   30.90  0.000632  (-0.001212  0.019510 -0.015815)
137:   3043.04   0.001635    8.26  0.000168  (-0.000161  0.010411  0.007699)
138:   3061.09   0.008796   44.45  0.000897  (-0.000596  0.029097 -0.007049)
139:   3117.36   0.002710   13.69  0.000271  ( 0.003788 -0.008096  0.013834)
140:   3123.15   0.001584    8.00  0.000158  (-0.002733 -0.000540  0.012268)
141:   3123.87   0.003041   15.37  0.000304  ( 0.008393 -0.011382  0.010190)
142:   3143.76   0.001292    6.53  0.000128  (-0.002512  0.010438  0.003599)
143:   3145.80   0.001140    5.76  0.000113  (-0.002474  0.003031  0.009891)
144:   3154.86   0.001843    9.32  0.000182  (-0.006375  0.006920  0.009686)
145:   3159.58   0.001511    7.64  0.000149  ( 0.010642  0.005816 -0.001476)
146:   3161.53   0.001469    7.42  0.000145  ( 0.000882 -0.001805  0.011872)
147:   3162.71   0.001760    8.89  0.000174  (-0.011470 -0.000432  0.006475)
148:   3170.49   0.000809    4.09  0.000080  ( 0.000556  0.006067  0.006521)
149:   3174.28   0.000495    2.50  0.000049  ( 0.001766 -0.006522 -0.001745)
150:   3184.15   0.000259    1.31  0.000025  ( 0.004668  0.001746 -0.000740)
151:   3740.41   0.010547   53.30  0.000880  ( 0.015404 -0.018984  0.016802)
152:   3744.84   0.002380   12.03  0.000198  (-0.010758  0.007636  0.004927)

* The epsilon (eps) is given for a Dirac delta lineshape.
** The dipole moment derivative (T) already includes vibrational overlap.

The first frequency considered to be a vibration is 6
The total number of vibrations considered is 147


--------------------------
THERMOCHEMISTRY AT 298.15K
--------------------------

Temperature         ...   298.15 K
Pressure            ...     1.00 atm
Total Mass          ...   409.43 AMU
Quasi RRHO          ...     True
Cut-Off Frequency   ...     1.00 cm^-1

Throughout the following assumptions are being made:
  (1) The electronic state is orbitally nondegenerate
  (2) There are no thermally accessible electronically excited states
  (3) Hindered rotations indicated by low frequency modes are not
      treated as such but are treated as vibrations and this may
      cause some error
  (4) All equations used are the standard statistical mechanics
      equations for an ideal gas
  (5) All vibrations are strictly harmonic

freq.      18.03  E(vib)   ...       0.57 
freq.      28.67  E(vib)   ...       0.55 
freq.      30.50  E(vib)   ...       0.55 
freq.      40.90  E(vib)   ...       0.54 
freq.      43.67  E(vib)   ...       0.53 
freq.      49.68  E(vib)   ...       0.52 
freq.      63.23  E(vib)   ...       0.51 
freq.      74.59  E(vib)   ...       0.49 
freq.      89.12  E(vib)   ...       0.47 
freq.     101.36  E(vib)   ...       0.46 
freq.     117.92  E(vib)   ...       0.44 
freq.     133.86  E(vib)   ...       0.42 
freq.     143.49  E(vib)   ...       0.41 
freq.     180.50  E(vib)   ...       0.37 
freq.     190.87  E(vib)   ...       0.36 
freq.     199.13  E(vib)   ...       0.35 
freq.     225.57  E(vib)   ...       0.33 
freq.     248.90  E(vib)   ...       0.31 
freq.     263.57  E(vib)   ...       0.29 
freq.     268.61  E(vib)   ...       0.29 
freq.     276.70  E(vib)   ...       0.28 
freq.     297.77  E(vib)   ...       0.27 
freq.     329.70  E(vib)   ...       0.24 
freq.     338.39  E(vib)   ...       0.23 
freq.     368.45  E(vib)   ...       0.21 
freq.     375.12  E(vib)   ...       0.21 
freq.     378.65  E(vib)   ...       0.21 
freq.     397.41  E(vib)   ...       0.20 
freq.     404.58  E(vib)   ...       0.19 
freq.     409.56  E(vib)   ...       0.19 
freq.     411.15  E(vib)   ...       0.19 
freq.     421.05  E(vib)   ...       0.18 
freq.     432.18  E(vib)   ...       0.18 
freq.     442.69  E(vib)   ...       0.17 
freq.     460.98  E(vib)   ...       0.16 
freq.     499.87  E(vib)   ...       0.14 
freq.     510.57  E(vib)   ...       0.14 
freq.     527.47  E(vib)   ...       0.13 
freq.     540.99  E(vib)   ...       0.12 
freq.     565.42  E(vib)   ...       0.11 
freq.     596.83  E(vib)   ...       0.10 
freq.     610.87  E(vib)   ...       0.10 
freq.     619.95  E(vib)   ...       0.09 
freq.     644.35  E(vib)   ...       0.09 
freq.     647.69  E(vib)   ...       0.09 
freq.     652.06  E(vib)   ...       0.08 
freq.     659.32  E(vib)   ...       0.08 
freq.     696.40  E(vib)   ...       0.07 
freq.     701.37  E(vib)   ...       0.07 
freq.     718.76  E(vib)   ...       0.07 
freq.     744.88  E(vib)   ...       0.06 
freq.     765.12  E(vib)   ...       0.06 
freq.     773.59  E(vib)   ...       0.05 
freq.     792.28  E(vib)   ...       0.05 
freq.     797.39  E(vib)   ...       0.05 
freq.     802.00  E(vib)   ...       0.05 
freq.     821.26  E(vib)   ...       0.05 
freq.     823.21  E(vib)   ...       0.05 
freq.     824.67  E(vib)   ...       0.04 
freq.     831.64  E(vib)   ...       0.04 
freq.     836.20  E(vib)   ...       0.04 
freq.     841.73  E(vib)   ...       0.04 
freq.     848.53  E(vib)   ...       0.04 
freq.     877.47  E(vib)   ...       0.04 
freq.     896.87  E(vib)   ...       0.03 
freq.     899.90  E(vib)   ...       0.03 
freq.     903.03  E(vib)   ...       0.03 
freq.     909.62  E(vib)   ...       0.03 
freq.     922.41  E(vib)   ...       0.03 
freq.     923.11  E(vib)   ...       0.03 
freq.     925.65  E(vib)   ...       0.03 
freq.     973.08  E(vib)   ...       0.03 
freq.    1023.05  E(vib)   ...       0.02 
freq.    1026.07  E(vib)   ...       0.02 
freq.    1027.39  E(vib)   ...       0.02 
freq.    1031.25  E(vib)   ...       0.02 
freq.    1062.43  E(vib)   ...       0.02 
freq.    1079.35  E(vib)   ...       0.02 
freq.    1087.56  E(vib)   ...       0.02 
freq.    1116.25  E(vib)   ...       0.01 
freq.    1123.14  E(vib)   ...       0.01 
freq.    1130.25  E(vib)   ...       0.01 
freq.    1132.12  E(vib)   ...       0.01 
freq.    1146.06  E(vib)   ...       0.01 
freq.    1178.14  E(vib)   ...       0.01 
freq.    1178.58  E(vib)   ...       0.01 
freq.    1188.49  E(vib)   ...       0.01 
freq.    1193.67  E(vib)   ...       0.01 
freq.    1195.89  E(vib)   ...       0.01 
freq.    1204.18  E(vib)   ...       0.01 
freq.    1224.71  E(vib)   ...       0.01 
freq.    1229.76  E(vib)   ...       0.01 
freq.    1233.97  E(vib)   ...       0.01 
freq.    1240.40  E(vib)   ...       0.01 
freq.    1241.08  E(vib)   ...       0.01 
freq.    1261.56  E(vib)   ...       0.01 
freq.    1286.19  E(vib)   ...       0.01 
freq.    1299.21  E(vib)   ...       0.01 
freq.    1307.35  E(vib)   ...       0.01 
freq.    1320.82  E(vib)   ...       0.01 
freq.    1324.96  E(vib)   ...       0.01 
freq.    1326.85  E(vib)   ...       0.01 
freq.    1344.76  E(vib)   ...       0.01 
freq.    1347.73  E(vib)   ...       0.01 
freq.    1361.44  E(vib)   ...       0.01 
freq.    1367.37  E(vib)   ...       0.01 
freq.    1379.57  E(vib)   ...       0.01 
freq.    1389.69  E(vib)   ...       0.00 
freq.    1398.47  E(vib)   ...       0.00 
freq.    1410.75  E(vib)   ...       0.00 
freq.    1418.60  E(vib)   ...       0.00 
freq.    1443.21  E(vib)   ...       0.00 
freq.    1453.40  E(vib)   ...       0.00 
freq.    1475.07  E(vib)   ...       0.00 
freq.    1477.77  E(vib)   ...       0.00 
freq.    1493.14  E(vib)   ...       0.00 
freq.    1535.62  E(vib)   ...       0.00 
freq.    1536.76  E(vib)   ...       0.00 
freq.    1545.52  E(vib)   ...       0.00 
freq.    1615.39  E(vib)   ...       0.00 
freq.    1624.41  E(vib)   ...       0.00 
freq.    1626.60  E(vib)   ...       0.00 
freq.    1639.21  E(vib)   ...       0.00 
freq.    1642.20  E(vib)   ...       0.00 
freq.    1651.07  E(vib)   ...       0.00 
freq.    1795.39  E(vib)   ...       0.00 
freq.    2981.48  E(vib)   ...       0.00 
freq.    2995.29  E(vib)   ...       0.00 
freq.    3001.37  E(vib)   ...       0.00 
freq.    3012.00  E(vib)   ...       0.00 
freq.    3018.60  E(vib)   ...       0.00 
freq.    3043.04  E(vib)   ...       0.00 
freq.    3061.09  E(vib)   ...       0.00 
freq.    3117.36  E(vib)   ...       0.00 
freq.    3123.15  E(vib)   ...       0.00 
freq.    3123.87  E(vib)   ...       0.00 
freq.    3143.76  E(vib)   ...       0.00 
freq.    3145.80  E(vib)   ...       0.00 
freq.    3154.86  E(vib)   ...       0.00 
freq.    3159.58  E(vib)   ...       0.00 
freq.    3161.53  E(vib)   ...       0.00 
freq.    3162.71  E(vib)   ...       0.00 
freq.    3170.49  E(vib)   ...       0.00 
freq.    3174.28  E(vib)   ...       0.00 
freq.    3184.15  E(vib)   ...       0.00 
freq.    3740.41  E(vib)   ...       0.00 
freq.    3744.84  E(vib)   ...       0.00 

------------
INNER ENERGY
------------

The inner energy is: U= E(el) + E(ZPE) + E(vib) + E(rot) + E(trans)
    E(el)   - is the total energy from the electronic structure calculation
              = E(kin-el) + E(nuc-el) + E(el-el) + E(nuc-nuc)
    E(ZPE)  - the the zero temperature vibrational energy from the frequency calculation
    E(vib)  - the the finite temperature correction to E(ZPE) due to population
              of excited vibrational states
    E(rot)  - is the rotational thermal energy
    E(trans)- is the translational thermal energy

Summary of contributions to the inner energy U:
Electronic energy                ...  -1406.68972194 Eh
Zero point energy                ...      0.39639131 Eh     248.74 kcal/mol
Thermal vibrational correction   ...      0.02344599 Eh      14.71 kcal/mol
Thermal rotational correction    ...      0.00141627 Eh       0.89 kcal/mol
Thermal translational correction ...      0.00141627 Eh       0.89 kcal/mol
-----------------------------------------------------------------------
Total thermal energy                  -1406.26705210 Eh


Summary of corrections to the electronic energy:
(perhaps to be used in another calculation)
Total thermal correction                  0.02627853 Eh      16.49 kcal/mol
Non-thermal (ZPE) correction              0.39639131 Eh     248.74 kcal/mol
-----------------------------------------------------------------------
Total correction                          0.42266984 Eh     265.23 kcal/mol


--------
ENTHALPY
--------

The enthalpy is H = U + kB*T
                kB is Boltzmann's constant
Total thermal energy              ...  -1406.26705210 Eh 
Thermal Enthalpy correction       ...      0.00094421 Eh       0.59 kcal/mol
-----------------------------------------------------------------------
Total Enthalpy                    ...  -1406.26610789 Eh


Note: Only C1 symmetry has been detected, increase convergence thresholds 
      if your molecule has a higher symmetry. Symmetry factor of 1.0 is   
      used for the rotational entropy correction. 
 

Note: Rotational entropy computed according to Herzberg 
Infrared and Raman Spectra, Chapter V,1, Van Nostrand Reinhold, 1945 
Point Group:  C1, Symmetry Number:   1  
Rotational constants in cm-1:     0.008184     0.003309     0.002726 

Vibrational entropy computed according to the QRRHO of S. Grimme
Chem.Eur.J. 2012 18 9955 using a reference frequency of 100.0 cm-1


-------
ENTROPY
-------

The entropy contributions are T*S = T*(S(el)+S(vib)+S(rot)+S(trans))
     S(el)   - electronic entropy
     S(vib)  - vibrational entropy
     S(rot)  - rotational entropy
     S(trans)- translational entropy
The entropies will be listed as multiplied by the temperature to get
units of energy

Electronic entropy                ...      0.00000000 Eh      0.00 kcal/mol
Vibrational entropy               ...      0.04141788 Eh     25.99 kcal/mol
Rotational entropy                ...      0.01726326 Eh     10.83 kcal/mol
Translational entropy             ...      0.02086762 Eh     13.09 kcal/mol
-----------------------------------------------------------------------
Final entropy term                ...      0.07954875 Eh     49.92 kcal/mol

In case the symmetry of your molecule has not been determined correctly
or in case you have a reason to use a different symmetry number we print 
out the resulting rotational entropy values for sn=1,12:

 non-linear molecules -----------------------------------
|  sn= 1 | S(rot)=       0.01726326 Eh     10.83 kcal/mol|
|  sn= 2 | S(rot)=       0.01660880 Eh     10.42 kcal/mol|
|  sn= 3 | S(rot)=       0.01622597 Eh     10.18 kcal/mol|
|  sn= 4 | S(rot)=       0.01595434 Eh     10.01 kcal/mol|
|  sn= 5 | S(rot)=       0.01574365 Eh      9.88 kcal/mol|
|  sn= 6 | S(rot)=       0.01557151 Eh      9.77 kcal/mol|
|  sn= 7 | S(rot)=       0.01542596 Eh      9.68 kcal/mol|
|  sn= 8 | S(rot)=       0.01529989 Eh      9.60 kcal/mol|
|  sn= 9 | S(rot)=       0.01518868 Eh      9.53 kcal/mol|
|  sn=10 | S(rot)=       0.01508920 Eh      9.47 kcal/mol|
|  sn=11 | S(rot)=       0.01499921 Eh      9.41 kcal/mol|
|  sn=12 | S(rot)=       0.01491705 Eh      9.36 kcal/mol|
 linear molecules ---------------------------------------
|  Dinfh | S(rot)=       0.01090101 Eh      6.84 kcal/mol|
|  Cinfv | S(rot)=       0.01155547 Eh      7.25 kcal/mol|
 --------------------------------------------------------


-------------------
GIBBS FREE ENERGY
-------------------

The Gibbs free energy is G = H - T*S

Total enthalpy                    ...  -1406.26610789 Eh 
Total entropy correction          ...     -0.07954875 Eh    -49.92 kcal/mol
-----------------------------------------------------------------------
Final Gibbs free energy         ...  -1406.34565665 Eh

For completeness - the Gibbs free energy minus the electronic energy
G-E(el)                           ...      0.34406529 Eh    215.90 kcal/mol


Maximum memory used throughout the entire PROP-calculation: 184.1 MB

--------------------------------
SUGGESTED CITATIONS FOR THIS RUN
--------------------------------

Below you find a list of papers that are relevant to this ORCA run
We neither can nor want to force you to cite these papers, but we appreciate if you do
You receive ORCA, which is the product of decades of hard work by many enthusiastic individuals, for free
The only thing we kindly ask in return is that you cite our papers,
We deeply appreciate it, if you show your appreciation for ORCA by not just citing the generic ORCA reference.

Please note that relegating all ORCA citations to the supporting information does *not* help us.
SI sections are not indexed - citations you put there will not count into any citation statistics
But we need these citations in order to attract the funding resources that allow us to do what we are doing

Therefore, if you are a happy ORCA user, please consider citing a few of the papers listed below in the main body of your paper

In addition to the list printed below, the program has created the file m1_00_Ezetimibe-GitHubGFN2-B97-3C-TZ.bibtex that contains the list in bibtex format
You can import this file easily into all common literature databanks and citation aid programs


List of essential papers. We consider these as the minimum necessary citations

  1. Neese,F.
     Software update: the ORCA program system, version 5.0
     WIRES Comput. Molec. Sci., 2022 12(1)e1606
     doi.org/10.1002/wcms.1606

List of papers to cite with high priority. The work reported in these papers was absolutely
necessary for this run to complete.
Our perspective: the developers of density functionals and basis sets usually get cited in chemistry papers
Good! But without the algorithms to do something with them, the functionals or basis sets would not do anything.
Hence, in our opinion, the algorithm design and method developments papers are equally worthy of getting cited

  1. Neese,F.
     An improvement of the resolution of the identity approximation for the formation of the Coulomb matrix
     J. Comp. Chem., 2003 24(14)1740-1747
     doi.org/10.1002/jcc.10318
  2. Bykov,D.; Petrenko,T.; Izsak,R.; Kossmann,S.; Becker,U.; Valeev,E.; Neese,F.
     Efficient implementation of the analytic second derivatives of Hartree-Fock and hybrid DFT energies: a detailed analysis of different approximations
     Molec. Phys., 2015 113 1961-1977
     doi.org/10.1080/00268976.2015.1025114
  3. Neese,F.
     The SHARK Integral Generation and Digestion System
     J. Comp. Chem., 2022  1-16
     doi.org/10.1002/jcc.26942
  4. Grimme,S.; Antony,J.; Ehrlich,S.; Krieg,H.
     A consistent and accurate ab initio parametrization of density functional dispersion correction (DFT-D) for the 94 elements H-Pu
     J. Chem. Phys., 2010 132 154104
     doi.org/10.1063/1.3382344
  5. Grimme,S.; Ehrlich,S.; Goerigk,L.
     Effect of the damping function in dispersion corrected density functional theory
     J. Comput. Chem., 2011 32(7)1456-1465
     doi.org/10.1002/jcc.21759

List of suggested additional citations. These are papers that are important in the 'surrounding' of 
of this run, or papers that preceded the highly important papers. If you like your results we are grateful for a citation.

  1. Neese,F.
     The ORCA program system
     WIRES Comput. Molec. Sci., 2012 2(1)73-78
     doi.org/10.1002/wcms.81
  2. Neese,F.
     Software update: the ORCA program system, version 4.0
     WIRES Comput. Molec. Sci., 2018 8(1)1-6
     doi.org/10.1002/wcms.1327
  3. Neese,F.; Wennmohs,F.; Becker,U.; Riplinger,C.
     The ORCA quantum chemistry program package
     J. Chem. Phys., 2020 152 Art. No. L224108
     doi.org/10.1063/5.0004608

List of optional additional citations

  1. Neese,F.
     Approximate second-order SCF convergence for spin unrestricted wavefunctions
     Chem. Phys. Lett., 2000 325(1-3)93-98
     doi.org/10.1016/s0009-2614(00)00662-x

Timings for individual modules:

Sum of individual times          ...     1143.780 sec (=  19.063 min)
Startup calculation              ...       80.065 sec (=   1.334 min)   7.0 %
SCF iterations                   ...      243.220 sec (=   4.054 min)  21.3 %
Property integrals               ...      249.914 sec (=   4.165 min)  21.8 %
SCF Response                     ...      348.583 sec (=   5.810 min)  30.5 %
Property calculations            ...       93.611 sec (=   1.560 min)   8.2 %
SCF Gradient evaluation          ...      128.075 sec (=   2.135 min)  11.2 %
Geometry relaxation              ...        0.312 sec (=   0.005 min)   0.0 %
                             ****ORCA TERMINATED NORMALLY****
TOTAL RUN TIME: 0 days 0 hours 19 minutes 7 seconds 711 msec
